LAMMPS data file via write_data, version 29 Aug 2024, timestep = 223992, units = real

126 atoms
18 atom types
107 bonds
17 bond types
151 angles
25 angle types
81 dihedrals
27 dihedral types
44 impropers
8 improper types

-5.849510375611219 5.849510375611219 xlo xhi
-5.849510375611219 5.849510375611219 ylo yhi
-5.849510375611219 5.849510375611219 zlo zhi

Masses

1 12.011
2 12.011
3 12.011
4 12.011
5 12.011
6 12.011
7 1.008
8 1.008
9 1.008
10 1.008
11 1.008
12 1.008
13 12.011
14 15.999
15 1.008
16 1.008
17 1.008
18 1.008

Pair Coeffs # lj/cut/coul/long

1 0.07 3.55
2 0.07 3.55
3 0.07 3.55
4 0.07 3.55
5 0.07 3.55
6 0.07 3.55
7 0.03 2.42
8 0.03 2.42
9 0.03 2.42
10 0.03 2.42
11 0.03 2.42
12 0.03 2.42
13 0.066 3.5
14 0.17 3.12
15 0.03 2.5
16 0.03 2.5
17 0.03 2.5
18 0 0

Bond Coeffs # harmonic

1 469 1.4
2 469 1.4
3 469 1.4
4 469 1.4
5 469 1.4
6 367 1.08
7 367 1.08
8 367 1.08
9 367 1.08
10 367 1.08
11 367 1.08
12 469 1.4
13 320 1.41
14 340 1.09
15 340 1.09
16 340 1.09
17 553 0.945

Angle Coeffs # harmonic

1 63 120
2 63 120
3 63 120
4 63 120
5 35 120
6 35 120
7 35 120
8 35 120
9 35 120
10 35 120
11 35 120
12 35 120
13 35 120
14 35 120
15 63 120
16 35 120
17 63 120
18 35 120
19 35 109.5
20 35 109.5
21 35 109.5
22 55 108.5
23 33 107.8
24 33 107.8
25 33 107.8

Dihedral Coeffs # opls

1 0 7.25 0 0
2 0 7.25 0 0
3 0 7.25 0 0
4 0 7.25 0 0
5 0 7.25 0 0
6 0 7.25 0 0
7 0 7.25 0 0
8 0 7.25 0 0
9 0 7.25 0 0
10 0 7.25 0 0
11 0 7.25 0 0
12 0 7.25 0 0
13 0 7.25 0 0
14 0 7.25 0 0
15 0 7.25 0 0
16 0 7.25 0 0
17 0 7.25 0 0
18 0 7.25 0 0
19 0 7.25 0 0
20 0 7.25 0 0
21 0 7.25 0 0
22 0 7.25 0 0
23 0 7.25 0 0
24 0 7.25 0 0
25 0 0 0.352 0
26 0 0 0.352 0
27 0 0 0.352 0

Improper Coeffs # cvff

1 2.5 -1 2
2 2.5 -1 2
3 2.5 -1 2
4 2.5 -1 2
5 2.5 -1 2
6 2.5 -1 2
7 0 -1 2
8 0 -1 2

Atoms # full

10 1 10 0.1474 -4.628984816642508 4.034173731121912 -5.704583894301811 -2 0 1
113 18 17 0.07679999999999999 5.228272896214667 2.173648148554875 2.521295404180113 -1 -1 1
11 1 11 0.147 -4.8701797051013935 2.7668239097505563 -3.3782044272878466 -2 0 1
4 1 4 -0.1472 -4.012751215192093 3.2637654497251063 -5.369992280586259 -2 0 1
70 11 16 0.07679999999999999 5.691957735503303 0.6581406378398675 -4.79812686379463 -1 1 1
53 8 17 0.07679999999999999 0.3333660871621156 4.6658728039272255 4.365898164399258 1 -1 0
51 8 15 0.07679999999999999 -0.5249052376233854 5.374100814974291 3.075822700396751 1 -1 0
49 8 13 -0.0491 -0.014352959647612629 5.610499759736596 4.021578074401731 1 -1 0
52 8 16 0.07679999999999999 -0.6797579870478403 -5.611703774977898 4.754131067592732 1 0 0
57 9 15 0.07679999999999999 -1.0513864415978915 3.7320762336318953 -3.554004775340003 -1 0 2
124 20 16 0.07679999999999999 5.547143415129568 -2.0884911332953267 -1.8919922560426485 -1 0 0
121 20 13 -0.0491 5.262087210120049 -2.8905372760744066 -2.5573552292564212 -1 0 0
3 1 3 -0.1474 -3.0832813246353115 2.9319083326177324 5.345820806886696 -2 0 0
2 1 2 -0.1476 -2.133547445159146 1.9189207127975099 5.595110283446833 -2 0 0
9 1 9 0.1474 -3.2446894050993325 3.434560588793138 4.354738903527511 -2 0 0
6 1 6 -0.147 -3.214684869683056 1.4966402917115573 -3.936270498532682 -2 0 1
5 1 5 -0.147 -4.121770123724225 2.5871951482470656 -4.161327100575783 -2 0 1
24 3 18 0.4061 3.174890821881691 -2.129896539612585 3.414835709128127 0 0 0
20 3 14 -0.5873 3.844610933856986 -1.713277897218953 3.976686396886942 0 0 0
21 3 15 0.07679999999999999 5.725651660236434 -1.801272869947744 4.313665487592246 0 0 0
30 4 18 0.4061 2.3879482644765044 0.5587214682520774 1.8514110923268694 -1 0 -1
26 4 14 -0.5873 1.6051851096300798 0.6125684020694484 2.401596730158973 -1 0 -1
42 6 18 0.4061 5.293970141196052 -5.286566417312184 0.807133159250026 0 1 -2
38 6 14 -0.5873 5.330469651291464 -5.29721804569075 -0.1525977189687541 0 1 -2
40 6 16 0.07679999999999999 5.5106453737260725 4.7532958887879815 -1.4033554889999402 0 0 -2
8 1 8 0.1474 -1.445829079962425 1.5928981102769466 4.736600711311107 -2 0 0
126 20 18 0.4061 5.0647372458878746 -1.587628361933679 -3.962658590288811 -1 0 0
122 20 14 -0.5873 5.431195055726956 -2.4664640568540763 -3.9053202612246283 -1 0 0
39 6 15 0.07679999999999999 4.5138171248148975 4.502102764097513 0.15472487437880078 0 0 -2
37 6 13 -0.0491 4.768210871318242 5.164924109800694 -0.6700761764666723 0 0 -2
41 6 17 0.07679999999999999 3.8316957678365267 5.381664545213823 -1.1947454423442734 0 0 -2
12 1 12 0.147 -3.3987646707145807 0.8774788354523446 -3.088845590442507 -2 0 1
1 1 1 -0.1474 -2.141359012691904 1.3063410263778241 -4.8211931536377595 -2 0 1
46 7 16 0.07679999999999999 -0.4303865033644403 -0.39403692782410715 -2.6375539872712133 1 -1 -1
43 7 13 -0.0491 0.6255508355443746 -0.12395491251803126 -2.6597506194554517 1 -1 -1
45 7 15 0.07679999999999999 1.1443289538979728 -0.7874685515021351 -1.9908231623203714 1 -1 -1
47 7 17 0.07679999999999999 0.8758618277751671 0.8273637319479779 -2.168223973972787 1 -1 -1
7 1 7 0.1474 -1.3803472366379106 0.6139722142750372 -4.552745509805321 -2 0 1
92 15 14 -0.5873 -2.8391739238224716 5.763993868730157 1.5842504233620536 -2 -2 0
96 15 18 0.4061 -2.023380897888973 -5.731908740863938 1.1577438685643335 -2 -1 0
44 7 14 -0.5873 1.0069248292504343 -0.22368890171742617 -4.025798436265805 1 -1 -1
48 7 18 0.4061 1.9548406916727057 -0.2669802750392085 -4.08886924167119 1 -1 -1
93 15 15 0.07679999999999999 -4.499958786255164 4.481190084721497 1.4544616320809995 -2 -2 0
91 15 13 -0.0491 -3.513535861816448 4.598746528099971 1.038976051931509 -2 -2 0
95 15 17 0.07679999999999999 -3.6442394736102988 4.904819506059127 0.004573739559069335 -2 -2 0
62 10 14 -0.5873 -0.4289006340731696 4.440104754854136 0.054790457925926905 0 0 -1
32 5 14 -0.5873 -2.327164553027586 -2.432605180380174 3.3427322090173224 0 1 0
36 5 18 0.4061 -2.9822559382397245 -2.5244803411885846 4.008700654639903 0 1 0
123 20 15 0.07679999999999999 4.2077657317435495 -2.9635218282682203 -2.338779378854265 -1 0 0
125 20 17 0.07679999999999999 5.760488310770066 -3.851733017114062 -2.454438094308242 -1 0 0
27 4 15 0.07679999999999999 2.9100681150464283 1.9332504823589618 3.390058339636359 -1 0 -1
29 4 17 0.07679999999999999 1.1557231184484156 1.962729150483554 3.914910341278699 -1 0 -1
25 4 13 -0.0491 1.9886178313648672 1.3601427167029554 3.5664348080881334 -1 0 -1
35 5 17 0.07679999999999999 -1.8782152331301742 -0.6439094379225887 4.373873175288923 0 1 0
28 4 16 0.07679999999999999 2.1415857164819956 0.6371676334592618 4.3769510413587325 -1 0 -1
34 5 16 0.07679999999999999 -0.8443402263809485 -2.027439241479264 4.76484229126674 0 1 0
31 5 13 -0.0491 -1.388619940991271 -1.5337654803057372 3.9375868233367557 0 1 0
65 10 17 0.07679999999999999 0.9325641306091397 3.286118819549838 1.302981228683189 0 0 -1
61 10 13 -0.0491 0.8832336044715294 4.006183180961063 0.40475008193864315 0 0 -1
59 9 17 0.07679999999999999 0.17162068038896106 3.0999784207552405 -4.757208987039267 -1 0 2
67 11 13 -0.0491 4.629687577341661 0.7070206579036915 -5.02982462918856 -1 1 1
83 13 17 0.07679999999999999 0.9515851377929829 -4.616946958405286 -5.533839965667696 -1 2 1
112 18 16 0.07679999999999999 5.549528077882007 0.3679075330552717 2.442991917911928 -1 -1 1
109 18 13 -0.0491 -5.715658638705442 1.363880055394528 2.3067288220522295 0 -1 1
80 13 14 -0.5873 0.30228375497403004 -3.153793806913195 -4.146249593778434 -1 2 1
79 13 13 -0.0491 1.3327134660834963 -3.7979688566573557 -4.954601983693064 -1 2 1
117 19 15 0.07679999999999999 3.6976404544890684 -5.564523075536619 -3.3399283968087365 1 1 0
50 8 14 -0.5873 1.1851704793813838 -5.3700416039585495 3.8714412613628824 1 0 0
119 19 17 0.07679999999999999 5.171050461245617 -5.5816533975567175 -4.141436468110547 1 1 0
74 12 14 -0.5873 -4.106395615254414 -3.060542258507218 -5.811852641268467 0 -1 0
84 13 18 0.4061 0.6555514009979939 -2.2782683361251745 -4.193328048794615 -1 2 1
120 19 18 0.4061 3.1339967531414032 4.065756492689504 -3.852396441644922 1 0 0
116 19 14 -0.5873 3.8812455632650646 4.331638254109475 -4.342777943928658 1 0 0
115 19 13 -0.0491 4.150715407848606 5.764126799515868 -4.28459579349059 1 0 0
118 19 16 0.07679999999999999 3.6468287558960704 -5.3473833793268 -5.0485638808888424 1 1 0
78 12 18 0.4061 -4.6019810890935355 -2.715243350219997 -5.093628730833137 0 -1 0
110 18 14 -0.5873 -5.1648839731411815 1.477377662372123 1.018467735228688 0 -1 1
75 12 15 0.07679999999999999 -4.108041787863248 -5.081122403457759 -5.284165392027004 0 -1 0
73 12 13 -0.0491 -3.446314065417277 -4.270232153195883 -5.567278800295888 0 -1 0
114 18 18 0.4061 -4.59045490410563 0.7630192480561808 0.8233775034164409 0 -1 1
81 13 15 0.07679999999999999 2.1481301041583496 -4.085440297085951 -4.331727843821717 -1 2 1
69 11 15 0.07679999999999999 4.373946998525321 0.9850334070631739 5.655613600712002 -1 1 0
58 9 16 0.07679999999999999 0.03151432948842281 2.4788220229281297 -3.079162769461944 -1 0 2
55 9 13 -0.0491 -0.024744392541305338 3.375103130874402 -3.70513809216325 -1 0 2
56 9 14 -0.5873 0.8473519902994298 4.287219678487965 -3.164705166215873 -1 0 2
76 12 16 0.07679999999999999 -2.73507225739667 -4.159853357132304 -4.728557248622741 0 -1 0
54 8 18 0.4061 1.102010441382311 -4.4341328696898525 3.714168360154152 1 0 0
107 17 17 0.07679999999999999 -1.668445993637162 -4.710592885625711 -0.5247256997960914 0 1 0
106 17 16 0.07679999999999999 -1.0451942077012664 -3.5546598004631074 -1.715824225083225 0 1 0
111 18 15 0.07679999999999999 -4.958138863188467 1.3785899006963334 3.1789850147634144 0 -1 1
71 11 17 0.07679999999999999 4.2426154443673525 1.6108761763805841 -4.465977488983616 -1 1 1
77 12 17 0.07679999999999999 -2.8182132794576855 -4.560917247437016 5.240707426003863 0 -1 -1
19 3 13 -0.0491 4.946108067056166 -2.529042003282298 4.017344479509212 0 0 0
60 9 18 0.4061 0.34979766436647086 5.041879716319897 -2.8693972218312878 -1 0 2
94 15 16 0.07679999999999999 -3.009412495990627 3.635588378256635 1.1571755183732428 -2 -2 0
23 3 17 0.07679999999999999 4.86443776116251 -3.324982906104736 4.754840100350362 0 0 0
33 5 15 0.07679999999999999 -0.7755704882786887 -1.2131529051774512 3.119857680213813 0 1 0
82 13 16 0.07679999999999999 1.6250799654519739 -3.0468571309953987 -5.778361354962871 -1 2 1
22 3 16 0.07679999999999999 5.246751372524081 -2.929769365872373 3.0430992249869657 0 0 0
103 17 13 -0.0491 -1.5638838005414293 -4.49296809373274 -1.577665971543173 0 1 0
105 17 15 0.07679999999999999 -2.498476106012144 -4.571308806948576 -2.0552727955132144 0 1 0
88 14 16 0.07679999999999999 5.119951677420444 0.09054837901926671 -1.2487619963182455 -2 0 1
85 14 13 -0.0491 4.138200803950335 0.3359328565788582 -0.9741999635449365 -2 0 1
90 14 18 0.4061 4.310136420173402 0.6829791355025003 0.8386327701227759 -2 0 1
108 17 18 0.4061 -0.48632394849931604 -4.693873966361397 -3.0317142250232414 0 1 0
104 17 14 -0.5873 -0.8440164352520245 -5.336519006532408 -2.4222591938741496 0 1 0
101 16 17 0.07679999999999999 3.761902505845457 3.9698628745074735 3.542055310737508 1 -2 -1
97 16 13 -0.0491 4.602934007076925 4.600558145314466 3.3901454934300466 1 -2 -1
99 16 15 0.07679999999999999 4.9777455258658545 4.6867809274831185 4.358529531863173 1 -2 -1
100 16 16 0.07679999999999999 5.358009117588582 4.15527001831537 2.75809356206023 1 -2 -1
98 16 14 -0.5873 4.128543638671422 5.779036878536779 2.768734308619911 1 -2 -1
102 16 18 0.4061 3.272478838086757 -5.611141242009741 3.0518945582140415 1 -1 -1
86 14 14 -0.5873 3.6946872807677824 0.18137599448337127 0.3236121252839175 -2 0 1
72 11 18 0.4061 3.9833816031592395 -1.0513797506358546 -5.352092027344111 -1 1 1
68 11 14 -0.5873 3.8755484471716635 -0.4081397098806825 -4.649704305128144 -1 1 1
17 2 17 0.07679999999999999 2.539824362561168 -4.252899110884677 1.4353130106396215 0 1 -2
66 10 18 0.4061 -0.4943438909440516 4.570896220667246 -0.8699478051204753 0 0 -1
14 2 14 -0.5873 1.4831771899653114 -2.591006993747898 2.338188925280055 0 1 -2
13 2 13 -0.0491 2.2907223625033204 -3.222290940730337 1.319764153202622 0 1 -2
15 2 15 0.07679999999999999 3.1250741014770007 -2.587007083889305 1.0546907265173746 0 1 -2
18 2 18 0.4061 1.298929001236715 -1.6745445780662376 2.123300518484418 0 1 -2
16 2 16 0.07679999999999999 1.7747629014714024 -3.326981794170278 0.3626509416309934 0 1 -2
87 14 15 0.07679999999999999 3.4689148342278227 -0.33456225472170775 -1.5974246260898035 -2 0 1
89 14 17 0.07679999999999999 3.9984482324901336 1.384682738595873 -1.2352393388375125 -2 0 1
64 10 16 0.07679999999999999 1.3203308130733626 3.678779736699058 -0.5407390857787358 0 0 -1
63 10 15 0.07679999999999999 1.4259857358382897 4.943859523122869 0.7420300741114704 0 0 -1

Velocities

10 -0.0010739840889416126 0.03263091265782193 -0.01823679707279674
113 0.02544479252794167 0.025520353007930097 -0.005670704314736139
11 -0.006642892886017218 -0.019322768124595435 0.007909583220700515
4 -0.002782003434400608 0.007590510797927761 0.0025998330927759833
70 0.010016844538175047 -0.0014374296958210464 -0.015433007273045208
53 -0.006393796653671771 -0.028414653834798034 0.0039490129959213706
51 0.008296445101483627 -0.014582607249082282 0.011104887326771349
49 0.0035217485441062786 -0.002404898503090499 0.004073084117655262
52 -0.002425756072587382 0.003991133417118061 -0.0060248668786561654
57 -0.0023696201122738445 -0.002143607000580551 -0.003992513303270825
124 -0.0020208507617265523 -0.01582244661328609 0.0008477271683815023
121 0.00013253984733678403 0.003992282408276585 -0.007848213132740714
3 0.0029246282512289767 -0.005687423460889186 -0.0041934070277634275
2 -0.0007900930738201607 0.004530736863244856 -0.0012657217671284923
9 -0.0036154843858183477 0.024687725811078868 -0.00826283959464701
6 -0.004328439525340444 -0.0035138388767508547 -0.0017816986463513444
5 0.0018857503416328482 -0.010560208541991342 0.001638239033298392
24 -0.017999672714470713 -0.004089190298527871 0.028024260025838073
20 -0.0026437681923136363 -0.0003231881969093706 -4.069158015103807e-05
21 0.008356108905255557 -0.008329761343909857 0.0016815732716370364
30 -0.005257720493960936 -0.009119782105927385 -0.015484125219257178
26 0.005456863005974268 0.009103705821682552 -0.00025588534183044136
42 0.009032908103600704 -0.004156051718059787 0.006955470289588697
38 -0.001519683451814211 0.0021136168665615053 -0.0015065564735472852
40 0.0032889675322880668 0.0065930273413344126 -0.0036817454733238993
8 0.009022242686770718 0.01888164376524087 -0.016157010196156923
126 0.009094825011497231 -0.003943337034288922 0.021704881427144135
122 0.0008638175817823513 -0.003498255266106106 0.0033857176062641785
39 -0.021776196224650296 -0.02095349013967441 -0.008673990286113736
37 -0.004109810726935584 0.00013259606491058902 -0.0006405554247164645
41 -0.012417153278119649 0.0073601309208532716 0.019142700545706697
12 0.012420768541945479 -0.01724823502124682 0.004130390524592215
1 0.004557876589080755 0.0018708626691687153 -0.009681889761304836
46 0.008256205496551849 -0.006935733005875115 0.008011037293395487
43 0.0032573324913192487 -0.0016286111044574447 0.001885573336164054
45 -0.016737197411292738 0.012967787794789387 0.012824743608142779
47 0.008783043112532734 -0.0020799117713719067 -0.003264662161119241
7 0.016551995448184254 -0.008409749742144151 0.02237390897045908
92 -0.0003931586862336425 0.00047610917274891837 0.0006402988882528861
96 -0.011888827827786923 0.0006888348569156533 0.003939229100607558
44 0.000592272537311076 0.0019618647185378588 0.00858359749131767
48 -0.00024918389229214717 -0.007079644003647817 0.033369469221473554
93 -0.003705783520354839 -0.007317711136948682 -0.009084758544532784
91 -0.003260715807219924 0.004044103847041995 0.001153600432822572
95 0.0008853456801910423 -0.020083951128625627 0.028284249817046855
62 0.002973975195371738 -0.0016928734922017183 0.00328545762075554
32 0.006247128463209498 0.004385263137805808 0.005654001061297459
36 0.024457324945855168 -0.013155006233045467 0.01137984547996177
123 0.031949234746248306 0.003551086074156729 -0.019760491700859507
125 -0.0027429170775805875 0.008074270611687058 -0.00036758544343355867
27 -0.0016372457554407198 0.003955368926068606 0.0024485562372103115
29 -0.0014544395524155064 -0.040761166043328495 -0.0007699018214593906
25 -0.004914531077689653 0.011595517485616146 -0.006144092698530182
35 0.014066084396484596 -0.016511112013202295 -0.010901176763516112
28 -0.02189319583021407 0.012993975783369522 -0.006960816190366526
34 0.020128495288886102 -0.0032150843597916847 -0.03709629214623736
31 -0.004280657499219093 0.007727670392211231 -0.004582450516521206
65 0.039504898508763556 -0.026433751133497073 -0.001881316526929587
61 0.00019370594976362443 0.003840521625825104 0.0045254016822460575
59 0.03446866755920662 -0.01921602206565644 -0.02722214510938645
67 0.010263851464929167 0.0009669507449648489 0.0009876320078973575
83 -0.028641690935119077 0.03586683716665358 -0.012139071100490652
112 -0.0158755533037395 0.02670683232601991 0.0033465244651718906
109 -0.004261898553924839 0.003940180713655429 0.00329812876090855
80 0.008031785840568895 -0.0063051609612985735 -0.0033735155059901214
79 -0.002187674972324252 -0.0031898838509071058 -0.0034876058181479114
117 0.0025429118739460467 -0.0006396287266691121 -0.005023130530897237
50 -0.0008692940833861883 -0.005459050312137545 0.0032923965422018467
119 -0.0157222014119751 -0.021751009094911507 -0.010007879323345287
74 -0.003301111483325781 -0.0007086779629048311 0.0024662410379387863
84 -0.006589751201456382 0.002558138053497982 -0.0011209460364947712
120 -0.02562060134212674 -0.0035676935968712944 0.00462213189476672
116 -0.00370220288808423 -0.008443389673369375 -0.006174491409441346
115 0.0015839718921568885 -0.0011165707879072287 -0.01195237051348293
118 0.01187325036254263 -0.00530088985461476 -0.013358930778622187
78 -0.01113920629753741 -0.006562381828165527 0.0018369572937885804
110 0.0006569150442520003 0.005322755029345401 -0.00223005526476626
75 0.008357234765188648 -0.008771621912241744 -0.018270234149856047
73 0.0033018633472008787 -0.00510030553882187 0.0007004423419966361
114 0.010091318785161486 0.00944010112953756 -0.025094233303892575
81 0.021904667526679054 -0.005971464160373805 0.03404349872123803
69 -0.01160250576967852 0.006099771030149251 0.004930923019088838
58 0.019117644401561565 0.004517963924099208 -0.0035477509113170415
55 -0.0022741635390871213 0.0023453928477119848 -0.002163446924923352
56 -6.621508700090685e-05 -6.808084811164726e-05 0.0036841161789670997
76 -0.010583467025984764 0.007083778819693693 -0.01247258354674782
54 -0.012459706982276596 0.005080956194107539 -0.001667263164600553
107 0.005056084374672081 0.010645782866122439 0.036939533141288824
106 -0.018997351416560962 -0.0045977208531873875 0.0006309447647743031
111 0.007255295864916819 -0.004038688403953364 -0.007104041236390787
71 0.01829055032745902 -0.029127965500707294 -0.006268259864212034
77 0.008712915642225767 0.0010043684496114143 0.019272604103997882
19 -0.0006884304865204627 -0.0012416922559644642 0.0001264386295463397
60 -0.004290240604080614 -0.013402738853366295 -0.0019950346445366082
94 0.0036966493048618083 -0.010046838138163748 0.0173389805210803
23 0.009755336800343586 -0.01661011471546065 0.005587935556221483
33 -0.01765827746067226 -0.02174993589621906 0.0063599265019327455
82 0.007684097655449615 0.027922889170160684 0.020090446200206436
22 0.0016812398720123158 -0.009199850353131237 0.009231668137062554
103 -0.0019152847908341737 0.0021497958788221356 0.003863073908589252
105 -0.0009272903141845276 0.0071823560434048596 0.02828024763296385
88 0.00848948250162741 -0.0018279740854880734 0.0038246903607021716
85 0.00041123705555864347 0.004573105977453209 0.002324376876049142
90 -0.003809418165446703 -0.005854097859576477 0.0021072158728767353
108 0.02167546306476435 -0.013732102549689386 0.014299661402920947
104 -0.002033163032361248 -0.0032760979919419526 0.0020125199657774545
101 0.004778943021836312 -0.0022548212756427362 -0.003987363217696384
97 -0.005541169783953534 0.00031632538100389836 0.00024368999122637488
99 -0.005593160053837897 0.0030539386469571658 -0.017197400791990395
100 0.002233821025025132 -0.002385226300443135 -0.0004530253250254908
98 -0.0024952399537355903 -0.0010123544228529205 -0.0004882197356804133
102 -0.01859307660367103 -0.01141677989099334 -0.001174561020992819
86 0.0009127630470400128 0.002550894057421954 -0.005481203765581008
72 -0.018222507350564063 0.008194463281007858 -0.002644572899732904
68 0.0015702687304944944 0.0003129641750518458 0.003098276464425538
17 0.006801546494864434 0.008463028014087421 0.024778188045185737
66 0.004944835540855466 0.02802820711583958 0.008631441409358278
14 -0.005648229593572466 0.0019507141024995953 0.00021551728723079945
13 -0.006664106475193486 -0.0031033303285889144 -0.003976143859978434
15 0.010867902158966826 -0.0028703377861036333 0.008413438088146373
18 -0.006559961248920155 -0.0011142441921840633 0.00042311756183384646
16 -0.014643663669378698 -0.028455754220852465 0.013130168711832035
87 0.015909258760220223 0.0012717910012795789 0.013452517541343667
89 0.01001103928422212 0.00028361169759361186 0.011557347567532114
64 0.002364955998043598 -0.009868067533417676 -0.03853578525423215
63 -0.011609178469694678 -0.014983405161600405 -0.025335230740779566

Bonds

1 9 10 4
2 16 113 109
3 10 11 5
4 3 4 3
5 15 70 67
6 16 53 49
7 14 51 49
8 15 52 49
9 14 57 55
10 15 124 121
11 2 3 2
12 1 2 1
13 8 9 3
14 5 6 1
15 12 6 5
16 4 5 4
17 17 24 20
18 13 20 19
19 14 21 19
20 17 30 26
21 13 26 25
22 17 42 38
23 13 38 37
24 15 40 37
25 7 8 2
26 17 126 122
27 13 122 121
28 14 39 37
29 16 41 37
30 11 12 6
31 15 46 43
32 14 45 43
33 16 47 43
34 6 7 1
35 13 92 91
36 17 96 92
37 13 44 43
38 17 48 44
39 14 93 91
40 16 95 91
41 13 62 61
42 13 32 31
43 17 36 32
44 14 123 121
45 16 125 121
46 14 27 25
47 16 29 25
48 16 35 31
49 15 28 25
50 15 34 31
51 16 65 61
52 16 59 55
53 16 83 79
54 15 112 109
55 13 80 79
56 14 117 115
57 13 50 49
58 16 119 115
59 13 74 73
60 17 84 80
61 17 120 116
62 13 116 115
63 15 118 115
64 17 78 74
65 13 110 109
66 14 75 73
67 17 114 110
68 14 81 79
69 14 69 67
70 15 58 55
71 13 56 55
72 15 76 73
73 17 54 50
74 16 107 103
75 15 106 103
76 14 111 109
77 16 71 67
78 16 77 73
79 17 60 56
80 15 94 91
81 16 23 19
82 14 33 31
83 15 82 79
84 15 22 19
85 14 105 103
86 15 88 85
87 17 90 86
88 17 108 104
89 13 104 103
90 16 101 97
91 14 99 97
92 15 100 97
93 13 98 97
94 17 102 98
95 13 86 85
96 17 72 68
97 13 68 67
98 16 17 13
99 17 66 62
100 13 14 13
101 14 15 13
102 17 18 14
103 15 16 13
104 14 87 85
105 16 89 85
106 15 64 61
107 14 63 61

Angles

1 3 3 4 5
2 8 3 4 10
3 14 5 4 10
4 19 50 49 51
5 20 50 49 52
6 21 50 49 53
7 23 51 49 52
8 24 51 49 53
9 25 52 49 53
10 19 122 121 123
11 20 122 121 124
12 21 122 121 125
13 23 123 121 124
14 24 123 121 125
15 25 124 121 125
16 2 2 3 4
17 7 2 3 9
18 16 4 3 9
19 1 1 2 3
20 6 1 2 8
21 18 3 2 8
22 10 1 6 12
23 13 5 6 12
24 15 1 6 5
25 9 4 5 11
26 11 6 5 11
27 17 4 5 6
28 22 19 20 24
29 22 25 26 30
30 22 37 38 42
31 22 121 122 126
32 19 38 37 39
33 20 38 37 40
34 21 38 37 41
35 23 39 37 40
36 24 39 37 41
37 25 40 37 41
38 4 2 1 6
39 5 2 1 7
40 12 6 1 7
41 19 44 43 45
42 20 44 43 46
43 21 44 43 47
44 23 45 43 46
45 24 45 43 47
46 25 46 43 47
47 22 91 92 96
48 22 43 44 48
49 19 92 91 93
50 20 92 91 94
51 21 92 91 95
52 23 93 91 94
53 24 93 91 95
54 25 94 91 95
55 22 61 62 66
56 22 31 32 36
57 19 26 25 27
58 20 26 25 28
59 21 26 25 29
60 23 27 25 28
61 24 27 25 29
62 25 28 25 29
63 19 32 31 33
64 20 32 31 34
65 21 32 31 35
66 23 33 31 34
67 24 33 31 35
68 25 34 31 35
69 19 62 61 63
70 20 62 61 64
71 21 62 61 65
72 23 63 61 64
73 24 63 61 65
74 25 64 61 65
75 19 68 67 69
76 20 68 67 70
77 21 68 67 71
78 23 69 67 70
79 24 69 67 71
80 25 70 67 71
81 19 110 109 111
82 20 110 109 112
83 21 110 109 113
84 23 111 109 112
85 24 111 109 113
86 25 112 109 113
87 22 79 80 84
88 19 80 79 81
89 20 80 79 82
90 21 80 79 83
91 23 81 79 82
92 24 81 79 83
93 25 82 79 83
94 22 49 50 54
95 22 73 74 78
96 22 115 116 120
97 19 116 115 117
98 20 116 115 118
99 21 116 115 119
100 23 117 115 118
101 24 117 115 119
102 25 118 115 119
103 22 109 110 114
104 19 74 73 75
105 20 74 73 76
106 21 74 73 77
107 23 75 73 76
108 24 75 73 77
109 25 76 73 77
110 19 56 55 57
111 20 56 55 58
112 21 56 55 59
113 23 57 55 58
114 24 57 55 59
115 25 58 55 59
116 22 55 56 60
117 19 20 19 21
118 20 20 19 22
119 21 20 19 23
120 23 21 19 22
121 24 21 19 23
122 25 22 19 23
123 19 104 103 105
124 20 104 103 106
125 21 104 103 107
126 23 105 103 106
127 24 105 103 107
128 25 106 103 107
129 19 86 85 87
130 20 86 85 88
131 21 86 85 89
132 23 87 85 88
133 24 87 85 89
134 25 88 85 89
135 22 103 104 108
136 19 98 97 99
137 20 98 97 100
138 21 98 97 101
139 23 99 97 100
140 24 99 97 101
141 25 100 97 101
142 22 97 98 102
143 22 85 86 90
144 22 67 68 72
145 22 13 14 18
146 19 14 13 15
147 20 14 13 16
148 21 14 13 17
149 23 15 13 16
150 24 15 13 17
151 25 16 13 17

Dihedrals

1 2 5 4 3 2
2 4 10 4 3 9
3 6 10 4 3 2
4 14 10 4 5 6
5 1 4 3 2 1
6 11 9 3 2 1
7 18 9 3 2 8
8 24 9 3 4 5
9 5 8 2 3 4
10 9 8 2 1 6
11 19 8 2 1 7
12 8 5 6 1 2
13 12 12 6 5 4
14 16 12 6 1 7
15 17 12 6 5 11
16 21 12 6 1 2
17 7 6 5 4 3
18 13 11 5 4 3
19 15 11 5 6 1
20 22 4 5 6 1
21 23 11 5 4 10
22 25 24 20 19 21
23 26 24 20 19 23
24 27 24 20 19 22
25 25 30 26 25 27
26 26 30 26 25 29
27 27 30 26 25 28
28 25 42 38 37 39
29 26 42 38 37 41
30 27 42 38 37 40
31 25 126 122 121 123
32 26 126 122 121 125
33 27 126 122 121 124
34 3 6 1 2 3
35 10 7 1 2 3
36 20 7 1 6 5
37 25 96 92 91 93
38 26 96 92 91 95
39 27 96 92 91 94
40 25 48 44 43 45
41 26 48 44 43 47
42 27 48 44 43 46
43 25 66 62 61 63
44 26 66 62 61 65
45 27 66 62 61 64
46 25 36 32 31 33
47 26 36 32 31 35
48 27 36 32 31 34
49 25 84 80 79 81
50 26 84 80 79 83
51 27 84 80 79 82
52 25 54 50 49 51
53 26 54 50 49 53
54 27 54 50 49 52
55 25 78 74 73 75
56 26 78 74 73 77
57 27 78 74 73 76
58 25 120 116 115 117
59 26 120 116 115 119
60 27 120 116 115 118
61 25 114 110 109 111
62 26 114 110 109 113
63 27 114 110 109 112
64 25 60 56 55 57
65 26 60 56 55 59
66 27 60 56 55 58
67 25 108 104 103 105
68 26 108 104 103 107
69 27 108 104 103 106
70 25 102 98 97 99
71 26 102 98 97 101
72 27 102 98 97 100
73 25 90 86 85 87
74 26 90 86 85 89
75 27 90 86 85 88
76 25 72 68 67 69
77 26 72 68 67 71
78 27 72 68 67 70
79 25 18 14 13 15
80 26 18 14 13 17
81 27 18 14 13 16

Impropers

1 4 4 10 3 5
2 5 5 11 4 6
3 1 1 2 6 7
4 3 3 9 2 4
5 7 19 20 21 22
6 8 19 20 21 23
7 7 25 26 27 28
8 8 25 26 27 29
9 7 37 38 39 40
10 8 37 38 39 41
11 7 121 122 123 124
12 8 121 122 123 125
13 2 2 1 3 8
14 6 6 1 12 5
15 7 91 92 93 94
16 8 91 92 93 95
17 7 43 44 45 46
18 8 43 44 45 47
19 7 61 62 63 64
20 8 61 62 63 65
21 7 31 32 33 34
22 8 31 32 33 35
23 7 79 80 81 82
24 8 79 80 81 83
25 7 49 50 51 52
26 8 49 50 51 53
27 7 73 74 75 76
28 8 73 74 75 77
29 7 115 116 117 118
30 8 115 116 117 119
31 7 109 110 111 112
32 8 109 110 111 113
33 7 55 56 57 58
34 8 55 56 57 59
35 7 103 104 105 106
36 8 103 104 105 107
37 7 97 98 99 100
38 8 97 98 99 101
39 7 85 86 87 88
40 8 85 86 87 89
41 7 67 68 69 70
42 8 67 68 69 71
43 7 13 14 15 16
44 8 13 14 15 17
