LAMMPS data file via write_data, version 29 Aug 2024, timestep = 3992, units = real

126 atoms
18 atom types
107 bonds
17 bond types
151 angles
25 angle types
81 dihedrals
27 dihedral types
44 impropers
8 improper types

-15 15 xlo xhi
-15 15 ylo yhi
-15 15 zlo zhi

Masses

1 12.011
2 12.011
3 12.011
4 12.011
5 12.011
6 12.011
7 1.008
8 1.008
9 1.008
10 1.008
11 1.008
12 1.008
13 12.011
14 15.999
15 1.008
16 1.008
17 1.008
18 1.008

Pair Coeffs # lj/cut/coul/long

1 0.07 3.55
2 0.07 3.55
3 0.07 3.55
4 0.07 3.55
5 0.07 3.55
6 0.07 3.55
7 0.03 2.42
8 0.03 2.42
9 0.03 2.42
10 0.03 2.42
11 0.03 2.42
12 0.03 2.42
13 0.066 3.5
14 0.17 3.12
15 0.03 2.5
16 0.03 2.5
17 0.03 2.5
18 0 0

Bond Coeffs # harmonic

1 469 1.4
2 469 1.4
3 469 1.4
4 469 1.4
5 469 1.4
6 367 1.08
7 367 1.08
8 367 1.08
9 367 1.08
10 367 1.08
11 367 1.08
12 469 1.4
13 320 1.41
14 340 1.09
15 340 1.09
16 340 1.09
17 553 0.945

Angle Coeffs # harmonic

1 63 120
2 63 120
3 63 120
4 63 120
5 35 120
6 35 120
7 35 120
8 35 120
9 35 120
10 35 120
11 35 120
12 35 120
13 35 120
14 35 120
15 63 120
16 35 120
17 63 120
18 35 120
19 35 109.5
20 35 109.5
21 35 109.5
22 55 108.5
23 33 107.8
24 33 107.8
25 33 107.8

Dihedral Coeffs # opls

1 0 7.25 0 0
2 0 7.25 0 0
3 0 7.25 0 0
4 0 7.25 0 0
5 0 7.25 0 0
6 0 7.25 0 0
7 0 7.25 0 0
8 0 7.25 0 0
9 0 7.25 0 0
10 0 7.25 0 0
11 0 7.25 0 0
12 0 7.25 0 0
13 0 7.25 0 0
14 0 7.25 0 0
15 0 7.25 0 0
16 0 7.25 0 0
17 0 7.25 0 0
18 0 7.25 0 0
19 0 7.25 0 0
20 0 7.25 0 0
21 0 7.25 0 0
22 0 7.25 0 0
23 0 7.25 0 0
24 0 7.25 0 0
25 0 0 0.352 0
26 0 0 0.352 0
27 0 0 0.352 0

Improper Coeffs # cvff

1 2.5 -1 2
2 2.5 -1 2
3 2.5 -1 2
4 2.5 -1 2
5 2.5 -1 2
6 2.5 -1 2
7 0 -1 2
8 0 -1 2

Atoms # full

58 9 16 0.07679999999999999 5.597342117408796 -14.587668159969605 -13.883460670327 0 0 1
55 9 13 -0.0491 5.763550609597851 14.361199781972273 -14.122087046858727 0 -1 1
57 9 15 0.07679999999999999 6.373405833562411 14.308979411744263 14.97525683447036 0 -1 0
59 9 17 0.07679999999999999 4.79588506807535 13.903539247623257 -14.332259688545328 0 -1 1
91 15 13 -0.0491 11.24677336760019 -11.264461437104956 -11.891968188438948 -1 0 0
92 15 14 -0.5873 10.877140303214276 -11.617314967529866 -10.573309884984358 -1 0 0
93 15 15 0.07679999999999999 12.264230266157611 -10.872208972108435 -11.91670217002914 -1 0 0
94 15 16 0.07679999999999999 10.573086749392498 -10.505667747761615 -12.292248657525064 -1 0 0
95 15 17 0.07679999999999999 11.202412294361764 -12.136699265911526 -12.545790131948086 -1 0 0
96 15 18 0.4061 10.915769752703449 -10.847914094036454 -10.022560051479404 -1 0 0
33 5 15 0.07679999999999999 12.85097452794777 -14.148444530923037 -11.504002694850211 -1 1 0
35 5 17 0.07679999999999999 11.231579827143735 -14.422450943393029 -10.863712501508191 -1 1 0
43 7 13 -0.0491 8.370286642186787 -13.714544779239702 -11.889830233467169 0 0 0
44 7 14 -0.5873 8.74390796662886 -14.877248269853977 -12.603374588425876 0 0 0
45 7 15 0.07679999999999999 8.700613936706269 -12.819173379342201 -12.417325347612538 0 0 0
46 7 16 0.07679999999999999 8.824326144500715 -13.709025336800776 -10.897846614313888 0 0 0
47 7 17 0.07679999999999999 7.287356800600803 -13.66346433812622 -11.771284896343415 0 0 0
48 7 18 0.4061 9.70379809569476 -14.904722820664974 -12.663258543454315 0 0 0
67 11 13 -0.0491 -3.893370562097665 -1.240001989657999 -8.442312775462678 0 0 0
69 11 15 0.07679999999999999 -2.9197598070074404 -1.3311416888155954 -8.925305481535766 0 0 0
70 11 16 0.07679999999999999 -4.504923583064979 -0.5524936297151046 -9.027804852874427 0 0 0
71 11 17 0.07679999999999999 -4.373611449771644 -2.2190004940453405 -8.444956311155016 0 0 0
60 9 18 0.4061 7.240959710365266 14.167939787089862 -12.873992500007471 0 -1 1
37 6 13 -0.0491 2.9016817745198824 14.38238098956484 -12.03501097923217 0 0 0
39 6 15 0.07679999999999999 3.690492018855553 13.672548370275603 -11.782796594966376 0 0 0
41 6 17 0.07679999999999999 3.36735753211831 -14.694052617503909 -12.379137564347628 0 1 0
38 6 14 -0.5873 2.0583635670015745 13.849196564369425 -13.035461621104156 0 0 0
40 6 16 0.07679999999999999 2.330998727304546 14.598039186299305 -11.131208416287913 0 0 0
42 6 18 0.4061 1.6354069707915628 13.062702063107976 -12.683924515691496 0 0 0
56 9 14 -0.5873 6.411952540745055 13.707755958904468 -13.04809899111188 0 -1 1
16 2 16 0.07679999999999999 3.6707417199556125 11.667841574437093 -13.873763966309086 0 0 0
13 2 13 -0.0491 4.448153006093813 10.9312000505851 -13.664973069432124 0 0 0
14 2 14 -0.5873 5.173864873989882 11.291524299161066 -12.50565699423792 0 0 0
15 2 15 0.07679999999999999 5.112348216206089 10.881675385167838 -14.528736199957645 0 0 0
17 2 17 0.07679999999999999 3.9739835787938964 9.957310060826652 -13.538403500949984 0 0 0
18 2 18 0.4061 5.629794178574556 12.122324945290206 -12.683321717682176 0 0 0
62 10 14 -0.5873 3.3609789342562015 10.404423364643584 -10.622091016769902 0 0 0
64 10 16 0.07679999999999999 4.562595756434611 10.773686885586901 -8.984822980386925 0 0 0
66 10 18 0.4061 4.0723748907204405 10.617031402896187 -11.23758666336731 0 0 0
61 10 13 -0.0491 3.6057831808625425 11.083456304023525 -9.407341410281672 0 0 0
63 10 15 0.07679999999999999 3.6370090699627116 12.161514163462924 -9.571327855865045 0 0 0
65 10 17 0.07679999999999999 2.8215290574384446 10.866504019236954 -8.681175899048766 0 0 0
26 4 14 -0.5873 1.1367192682015748 11.49184716004072 -11.854398274115036 0 0 1
30 4 18 0.4061 1.815048161807172 11.04173825177231 -11.341158001756973 0 0 1
27 4 15 0.07679999999999999 0.08433554145348819 9.74176989555481 -12.15787827170797 0 0 1
25 4 13 -0.0491 0.5354695685570017 10.556451901709691 -12.725863603990769 0 0 1
28 4 16 0.07679999999999999 1.277260250602332 10.132360095392249 -13.403690212124074 0 0 1
29 4 17 0.07679999999999999 -0.24339942258999786 11.034189796658698 -13.321508293020614 0 0 1
31 5 13 -0.0491 12.010223501996988 -14.843626421731928 -11.501324067866932 -1 1 0
36 5 18 0.4061 12.21933307367531 14.573151647873626 -13.341669583441952 -1 0 0
32 5 14 -0.5873 11.525496450122109 14.949073668009516 -12.815122970966177 -1 0 0
34 5 16 0.07679999999999999 12.34036272401107 14.216553832311345 -11.05656889506607 -1 0 0
68 11 14 -0.5873 -3.746025501957057 -0.7662126091701418 -7.120174097867612 0 0 0
122 20 14 -0.5873 -7.86649188242578 3.9547106799816962 -1.6209525747607616 0 0 0
126 20 18 0.4061 -8.341095397135879 4.602636309670343 -2.120845793638476 0 0 0
72 11 18 0.4061 -3.324584613827859 0.09459730775277427 -7.150540119630763 0 0 0
20 3 14 -0.5873 -2.6357574429306423 1.8047127412251343 -7.079004871193642 0 0 0
23 3 17 0.07679999999999999 -0.6847058424459418 1.1446312706531483 -7.238438148926217 0 0 0
24 3 18 0.4061 -3.1887661293928025 2.257747402188302 -6.443633568162527 0 0 0
22 3 16 0.07679999999999999 -0.9108579340938727 2.6165861983759444 -6.283122664425747 0 0 0
19 3 13 -0.0491 -1.3438227756638506 1.6459861448373332 -6.528536052746902 0 0 0
121 20 13 -0.0491 -6.856777592395742 3.3910948182472973 -2.434408296868844 0 0 0
124 20 16 0.07679999999999999 -7.287852428737628 2.910557673865878 -3.3134635739343743 0 0 0
125 20 17 0.07679999999999999 -6.294417686485381 2.6394907963762173 -1.8793758206293112 0 0 0
123 20 15 0.07679999999999999 -6.15685843422771 4.156295636347761 -2.7720053558459035 0 0 0
1 1 1 -0.1474 -3.508917876466346 2.8304959489037613 -3.904024759438816 0 0 0
2 1 2 -0.1476 -3.78044835573685 3.991404695284362 -4.654620400730423 0 0 0
3 1 3 -0.1474 -4.765098248166766 3.964791155912659 -5.662011384749687 0 0 0
4 1 4 -0.1472 -5.476921879489009 2.7767397735149277 -5.920162511282512 0 0 0
5 1 5 -0.147 -5.201877359158145 1.6147991037419536 -5.172632625916926 0 0 0
6 1 6 -0.147 -4.218483196027781 1.6416612262452743 -4.164729552854766 0 0 0
7 1 7 0.1474 -2.757135961361992 2.8509648812384016 -3.127013165517089 0 0 0
8 1 8 0.1474 -3.236961493771412 4.904567180432795 -4.453889265465976 0 0 0
9 1 9 0.1474 -4.974727563046471 4.856168175854782 -6.237517188595024 0 0 0
10 1 10 0.1474 -6.229392498952348 2.751970053680448 -6.696561895484055 0 0 0
11 1 11 0.147 -5.735562040932421 0.6962577669501878 -5.380046438260383 0 0 0
12 1 12 0.147 -4.008559040107999 0.7461421174466686 -3.595661542262119 0 0 0
21 3 15 0.07679999999999999 -1.3864859604829909 1.0477113478478686 -5.6171664800584 0 0 0
82 13 16 0.07679999999999999 -14.344399681824951 -8.002660986499746 4.057712018682088 0 0 0
88 14 16 0.07679999999999999 -11.737424745791335 -4.148215582095766 0.8630157102722629 0 0 0
85 14 13 -0.0491 -12.74290258887729 -3.7292045860681253 0.9240330138507333 0 0 0
86 14 14 -0.5873 -13.294306637888022 -3.9449009200213685 2.2070692890150667 0 0 0
87 14 15 0.07679999999999999 -13.358587200291804 -4.203747592026714 0.15861199429966452 0 0 0
90 14 18 0.4061 -13.329183646840665 -4.892517253164834 2.369571574881382 0 0 0
79 13 13 -0.0491 -14.44161231876013 -7.034755296630627 3.563832374380644 0 0 0
84 13 18 0.4061 -12.657080950566481 -6.419750153375756 4.024152539567042 0 0 0
116 19 14 -0.5873 -11.857732036778918 -5.530235931356355 5.489515788263423 0 0 0
119 19 17 0.07679999999999999 -10.213762217344192 -6.768286939311077 5.71751400037552 0 0 0
80 13 14 -0.5873 -13.169085648288785 -6.524667814692049 3.2193482714770876 0 0 0
89 14 17 0.07679999999999999 -12.685366492200009 -2.6621953412164223 0.7051804698222376 0 0 0
101 16 17 0.07679999999999999 -13.602040142607137 -2.6627349544973757 6.492458912047147 1 0 0
108 17 18 0.4061 -11.323006025345782 -2.3388652696062273 5.87310641439049 0 0 0
115 19 13 -0.0491 -10.456948762962824 -5.723807641400638 5.518247531938749 0 0 0
117 19 15 0.07679999999999999 -10.00028053593809 -5.1134486610428365 6.298594800383985 0 0 0
118 19 16 0.07679999999999999 -10.009413684970744 -5.442097163265176 4.56382155175508 0 0 0
120 19 18 0.4061 -12.030159655978995 -4.601428640825338 5.304884033439467 0 0 0
97 16 13 -0.0491 -13.804998295982866 -2.7950435433477936 5.428969876959336 1 0 0
98 16 14 -0.5873 -12.604981282120084 -2.9552940008591024 4.694092418155448 1 0 0
99 16 15 0.07679999999999999 -14.44723948946379 -3.669601081113903 5.313358684067685 1 0 0
100 16 16 0.07679999999999999 -14.356022427756862 -1.9216687456733093 5.077031444254943 1 0 0
102 16 18 0.4061 -12.840319999676868 -3.088513870787703 3.7681609470358732 1 0 0
78 12 18 0.4061 -12.45864241483412 -5.811964382140906 7.216269831113371 0 0 0
103 17 13 -0.0491 -11.023019267336878 -1.0337397568530275 7.2797360371319515 0 0 0
104 17 14 -0.5873 -10.648698433753125 -2.178404663554624 6.538142405947055 0 0 0
106 17 16 0.07679999999999999 -11.100735717001237 -0.16375195594739883 6.626438253272603 0 0 0
52 8 16 0.07679999999999999 -7.4613396643012555 -3.4167613907786443 7.227450606898861 0 0 0
81 13 15 0.07679999999999999 -14.957239136918625 -6.354611698554596 4.243596556644691 0 0 0
83 13 17 0.07679999999999999 14.942358119116859 -7.16493393073512 2.673121845518138 -1 0 0
105 17 15 0.07679999999999999 -11.990891670779229 -1.1871309355972026 7.759645387441514 0 0 0
74 12 14 -0.5873 -12.790317608248662 -5.764933704874898 8.11528072609468 0 0 0
73 12 13 -0.0491 -11.790247946994306 -6.2556970930511655 8.986122429451793 0 0 0
75 12 15 0.07679999999999999 -10.885337517424688 -5.650578865838131 8.912852162520728 0 0 0
76 12 16 0.07679999999999999 -11.533888870603796 -7.285306319148797 8.733831989768756 0 0 0
77 12 17 0.07679999999999999 -12.135500359491417 -6.230925743251017 10.02029216789696 0 0 0
107 17 17 0.07679999999999999 -10.28781346370723 -0.8167796931795507 8.055638505936715 0 0 0
112 18 16 0.07679999999999999 -12.632382800434682 -3.5973420604337587 10.99199191577624 0 0 0
49 8 13 -0.0491 -7.8020226746082395 -3.2258212143379743 8.245760960302263 0 0 0
50 8 14 -0.5873 -9.154679166152162 -3.603992154822704 8.392653554520423 0 0 0
51 8 15 0.07679999999999999 -7.678775261926666 -2.162641732350639 8.455346417953692 0 0 0
54 8 18 0.4061 -9.683219896733316 -3.0945535229067547 7.771747037414135 0 0 0
109 18 13 -0.0491 -12.525433574170663 -2.9262060203037 10.139262678975768 0 0 0
110 18 14 -0.5873 -13.467617190745743 -3.247038824235542 9.13636431368199 0 0 0
111 18 15 0.07679999999999999 -11.50954068449963 -3.021929783662197 9.753939750428247 0 0 0
113 18 17 0.07679999999999999 -12.668856537888233 -1.9022569136995762 10.484934480921225 0 0 0
114 18 18 0.4061 -13.301754518513434 -4.144445809411487 8.838798191393735 0 0 0
53 8 17 0.07679999999999999 -7.171196160304247 -3.789491772780684 8.933798779546226 0 0 0

Velocities

58 0 0 0
55 0 0 0
57 0 0 0
59 0 0 0
91 0 0 0
92 0 0 0
93 0 0 0
94 0 0 0
95 0 0 0
96 0 0 0
33 0 0 0
35 0 0 0
43 0 0 0
44 0 0 0
45 0 0 0
46 0 0 0
47 0 0 0
48 0 0 0
67 0 0 0
69 0 0 0
70 0 0 0
71 0 0 0
60 0 0 0
37 0 0 0
39 0 0 0
41 0 0 0
38 0 0 0
40 0 0 0
42 0 0 0
56 0 0 0
16 0 0 0
13 0 0 0
14 0 0 0
15 0 0 0
17 0 0 0
18 0 0 0
62 0 0 0
64 0 0 0
66 0 0 0
61 0 0 0
63 0 0 0
65 0 0 0
26 0 0 0
30 0 0 0
27 0 0 0
25 0 0 0
28 0 0 0
29 0 0 0
31 0 0 0
36 0 0 0
32 0 0 0
34 0 0 0
68 0 0 0
122 0 0 0
126 0 0 0
72 0 0 0
20 0 0 0
23 0 0 0
24 0 0 0
22 0 0 0
19 0 0 0
121 0 0 0
124 0 0 0
125 0 0 0
123 0 0 0
1 0 0 0
2 0 0 0
3 0 0 0
4 0 0 0
5 0 0 0
6 0 0 0
7 0 0 0
8 0 0 0
9 0 0 0
10 0 0 0
11 0 0 0
12 0 0 0
21 0 0 0
82 0 0 0
88 0 0 0
85 0 0 0
86 0 0 0
87 0 0 0
90 0 0 0
79 0 0 0
84 0 0 0
116 0 0 0
119 0 0 0
80 0 0 0
89 0 0 0
101 0 0 0
108 0 0 0
115 0 0 0
117 0 0 0
118 0 0 0
120 0 0 0
97 0 0 0
98 0 0 0
99 0 0 0
100 0 0 0
102 0 0 0
78 0 0 0
103 0 0 0
104 0 0 0
106 0 0 0
52 0 0 0
81 0 0 0
83 0 0 0
105 0 0 0
74 0 0 0
73 0 0 0
75 0 0 0
76 0 0 0
77 0 0 0
107 0 0 0
112 0 0 0
49 0 0 0
50 0 0 0
51 0 0 0
54 0 0 0
109 0 0 0
110 0 0 0
111 0 0 0
113 0 0 0
114 0 0 0
53 0 0 0

Bonds

1 15 58 55
2 14 57 55
3 16 59 55
4 13 92 91
5 14 93 91
6 15 94 91
7 16 95 91
8 17 96 92
9 14 33 31
10 16 35 31
11 13 44 43
12 14 45 43
13 15 46 43
14 16 47 43
15 17 48 44
16 14 69 67
17 15 70 67
18 16 71 67
19 17 60 56
20 14 39 37
21 16 41 37
22 13 38 37
23 15 40 37
24 17 42 38
25 13 56 55
26 15 16 13
27 13 14 13
28 14 15 13
29 16 17 13
30 17 18 14
31 13 62 61
32 15 64 61
33 17 66 62
34 14 63 61
35 16 65 61
36 13 26 25
37 17 30 26
38 14 27 25
39 15 28 25
40 16 29 25
41 17 36 32
42 13 32 31
43 15 34 31
44 13 68 67
45 13 122 121
46 17 126 122
47 17 72 68
48 13 20 19
49 16 23 19
50 17 24 20
51 15 22 19
52 15 124 121
53 16 125 121
54 14 123 121
55 1 2 1
56 2 3 2
57 3 4 3
58 4 5 4
59 5 6 1
60 12 6 5
61 6 7 1
62 7 8 2
63 8 9 3
64 9 10 4
65 10 11 5
66 11 12 6
67 14 21 19
68 15 82 79
69 15 88 85
70 13 86 85
71 14 87 85
72 17 90 86
73 17 84 80
74 13 116 115
75 16 119 115
76 13 80 79
77 16 89 85
78 16 101 97
79 17 108 104
80 14 117 115
81 15 118 115
82 17 120 116
83 13 98 97
84 14 99 97
85 15 100 97
86 17 102 98
87 17 78 74
88 13 104 103
89 15 106 103
90 15 52 49
91 14 81 79
92 16 83 79
93 14 105 103
94 13 74 73
95 14 75 73
96 15 76 73
97 16 77 73
98 16 107 103
99 15 112 109
100 13 50 49
101 14 51 49
102 17 54 50
103 13 110 109
104 14 111 109
105 16 113 109
106 17 114 110
107 16 53 49

Angles

1 19 56 55 57
2 20 56 55 58
3 21 56 55 59
4 23 57 55 58
5 24 57 55 59
6 25 58 55 59
7 19 92 91 93
8 20 92 91 94
9 21 92 91 95
10 23 93 91 94
11 24 93 91 95
12 25 94 91 95
13 22 91 92 96
14 19 44 43 45
15 20 44 43 46
16 21 44 43 47
17 23 45 43 46
18 24 45 43 47
19 25 46 43 47
20 22 43 44 48
21 19 68 67 69
22 20 68 67 70
23 21 68 67 71
24 23 69 67 70
25 24 69 67 71
26 25 70 67 71
27 19 38 37 39
28 20 38 37 40
29 21 38 37 41
30 23 39 37 40
31 24 39 37 41
32 25 40 37 41
33 22 37 38 42
34 22 55 56 60
35 19 14 13 15
36 20 14 13 16
37 21 14 13 17
38 23 15 13 16
39 24 15 13 17
40 25 16 13 17
41 22 13 14 18
42 22 61 62 66
43 19 62 61 63
44 20 62 61 64
45 21 62 61 65
46 23 63 61 64
47 24 63 61 65
48 25 64 61 65
49 22 25 26 30
50 19 26 25 27
51 20 26 25 28
52 21 26 25 29
53 23 27 25 28
54 24 27 25 29
55 25 28 25 29
56 19 32 31 33
57 20 32 31 34
58 21 32 31 35
59 23 33 31 34
60 24 33 31 35
61 25 34 31 35
62 22 31 32 36
63 22 67 68 72
64 22 121 122 126
65 22 19 20 24
66 19 20 19 21
67 20 20 19 22
68 21 20 19 23
69 23 21 19 22
70 24 21 19 23
71 25 22 19 23
72 19 122 121 123
73 20 122 121 124
74 21 122 121 125
75 23 123 121 124
76 24 123 121 125
77 25 124 121 125
78 4 2 1 6
79 5 2 1 7
80 12 6 1 7
81 1 1 2 3
82 6 1 2 8
83 18 3 2 8
84 2 2 3 4
85 7 2 3 9
86 16 4 3 9
87 3 3 4 5
88 8 3 4 10
89 14 5 4 10
90 9 4 5 11
91 11 6 5 11
92 17 4 5 6
93 10 1 6 12
94 13 5 6 12
95 15 1 6 5
96 19 86 85 87
97 20 86 85 88
98 21 86 85 89
99 23 87 85 88
100 24 87 85 89
101 25 88 85 89
102 22 85 86 90
103 19 80 79 81
104 20 80 79 82
105 21 80 79 83
106 23 81 79 82
107 24 81 79 83
108 25 82 79 83
109 22 115 116 120
110 22 79 80 84
111 19 116 115 117
112 20 116 115 118
113 21 116 115 119
114 23 117 115 118
115 24 117 115 119
116 25 118 115 119
117 19 98 97 99
118 20 98 97 100
119 21 98 97 101
120 23 99 97 100
121 24 99 97 101
122 25 100 97 101
123 22 97 98 102
124 19 104 103 105
125 20 104 103 106
126 21 104 103 107
127 23 105 103 106
128 24 105 103 107
129 25 106 103 107
130 22 103 104 108
131 22 73 74 78
132 19 74 73 75
133 20 74 73 76
134 21 74 73 77
135 23 75 73 76
136 24 75 73 77
137 25 76 73 77
138 19 50 49 51
139 20 50 49 52
140 21 50 49 53
141 23 51 49 52
142 24 51 49 53
143 25 52 49 53
144 22 49 50 54
145 19 110 109 111
146 20 110 109 112
147 21 110 109 113
148 23 111 109 112
149 24 111 109 113
150 25 112 109 113
151 22 109 110 114

Dihedrals

1 25 96 92 91 93
2 26 96 92 91 95
3 27 96 92 91 94
4 25 48 44 43 45
5 26 48 44 43 47
6 27 48 44 43 46
7 25 42 38 37 39
8 26 42 38 37 41
9 27 42 38 37 40
10 25 60 56 55 57
11 26 60 56 55 59
12 27 60 56 55 58
13 25 18 14 13 15
14 26 18 14 13 17
15 27 18 14 13 16
16 25 66 62 61 63
17 26 66 62 61 65
18 27 66 62 61 64
19 25 30 26 25 27
20 26 30 26 25 29
21 27 30 26 25 28
22 25 36 32 31 33
23 26 36 32 31 35
24 27 36 32 31 34
25 25 72 68 67 69
26 26 72 68 67 71
27 27 72 68 67 70
28 25 126 122 121 123
29 26 126 122 121 125
30 27 126 122 121 124
31 25 24 20 19 21
32 26 24 20 19 23
33 27 24 20 19 22
34 3 6 1 2 3
35 10 7 1 2 3
36 20 7 1 6 5
37 5 8 2 3 4
38 9 8 2 1 6
39 19 8 2 1 7
40 1 4 3 2 1
41 11 9 3 2 1
42 18 9 3 2 8
43 24 9 3 4 5
44 2 5 4 3 2
45 4 10 4 3 9
46 6 10 4 3 2
47 14 10 4 5 6
48 7 6 5 4 3
49 13 11 5 4 3
50 15 11 5 6 1
51 22 4 5 6 1
52 23 11 5 4 10
53 8 5 6 1 2
54 12 12 6 5 4
55 16 12 6 1 7
56 17 12 6 5 11
57 21 12 6 1 2
58 25 90 86 85 87
59 26 90 86 85 89
60 27 90 86 85 88
61 25 120 116 115 117
62 26 120 116 115 119
63 27 120 116 115 118
64 25 84 80 79 81
65 26 84 80 79 83
66 27 84 80 79 82
67 25 102 98 97 99
68 26 102 98 97 101
69 27 102 98 97 100
70 25 108 104 103 105
71 26 108 104 103 107
72 27 108 104 103 106
73 25 78 74 73 75
74 26 78 74 73 77
75 27 78 74 73 76
76 25 54 50 49 51
77 26 54 50 49 53
78 27 54 50 49 52
79 25 114 110 109 111
80 26 114 110 109 113
81 27 114 110 109 112

Impropers

1 7 91 92 93 94
2 8 91 92 93 95
3 7 43 44 45 46
4 8 43 44 45 47
5 7 37 38 39 40
6 8 37 38 39 41
7 7 55 56 57 58
8 8 55 56 57 59
9 7 13 14 15 16
10 8 13 14 15 17
11 7 61 62 63 64
12 8 61 62 63 65
13 7 25 26 27 28
14 8 25 26 27 29
15 7 31 32 33 34
16 8 31 32 33 35
17 7 67 68 69 70
18 8 67 68 69 71
19 7 121 122 123 124
20 8 121 122 123 125
21 7 19 20 21 22
22 8 19 20 21 23
23 2 2 1 3 8
24 6 6 1 12 5
25 1 1 2 6 7
26 3 3 9 2 4
27 4 4 10 3 5
28 5 5 11 4 6
29 7 85 86 87 88
30 8 85 86 87 89
31 7 115 116 117 118
32 8 115 116 117 119
33 7 79 80 81 82
34 8 79 80 81 83
35 7 97 98 99 100
36 8 97 98 99 101
37 7 103 104 105 106
38 8 103 104 105 107
39 7 73 74 75 76
40 8 73 74 75 77
41 7 49 50 51 52
42 8 49 50 51 53
43 7 109 110 111 112
44 8 109 110 111 113
