LAMMPS (29 Aug 2024 - Development - patch_29Aug2024-269-g805c2ae131)
# 1) Initialization
units real
atom_style full
bond_style     harmonic
angle_style    harmonic
dihedral_style opls
improper_style cvff
pair_style lj/cut/coul/long 12
pair_modify mix geometric
special_bonds lj/coul 0.0 0.0 0.5
kspace_style pppm 1e-6
neighbor        2.0 bin
neigh_modify


read_data equil_traj/density.data
Reading data file ...
  orthogonal box = (-5.8495104 -5.8495104 -5.8495104) to (5.8495104 5.8495104 5.8495104)
  1 by 1 by 1 MPI processor grid
  reading atoms ...
  126 atoms
  reading velocities ...
  126 velocities
  scanning bonds ...
  2 = max bonds/atom
  scanning angles ...
  6 = max angles/atom
  scanning dihedrals ...
  5 = max dihedrals/atom
  scanning impropers ...
  2 = max impropers/atom
  orthogonal box = (-5.8495104 -5.8495104 -5.8495104) to (5.8495104 5.8495104 5.8495104)
  1 by 1 by 1 MPI processor grid
  reading bonds ...
  107 bonds
  reading angles ...
  151 angles
  reading dihedrals ...
  81 dihedrals
  reading impropers ...
  44 impropers
Finding 1-2 1-3 1-4 neighbors ...
  special bond factors lj:    0        0        0.5     
  special bond factors coul:  0        0        0.5     
     4 = max # of 1-2 neighbors
     4 = max # of 1-3 neighbors
     8 = max # of 1-4 neighbors
    10 = max # of special neighbors
  special bonds CPU = 0.000 seconds
  read_data CPU = 0.005 seconds
read_dump equil_traj/density.atom 622500 x y z box yes
Scanning dump file ...
Reading snapshot from dump file ...
  orthogonal box = (-5.7444331 -5.7444331 -5.7444331) to (5.7444331 5.7444331 5.7444331)
  126 atoms before read
  126 atoms in snapshot
  0 atoms purged
  126 atoms replaced
  0 atoms trimmed
  0 atoms added
  126 atoms after read

mass 1 12.011
mass 2 12.011
mass 3 12.011
mass 4 12.011
mass 5 12.011
mass 6 12.011
mass 7 1.008
mass 8 1.008
mass 9 1.008
mass 10 1.008
mass 11 1.008
mass 12 1.008

pair_coeff 1 1 0.070 3.5500000
pair_coeff 2 2 0.070 3.5500000
pair_coeff 3 3 0.070 3.5500000
pair_coeff 4 4 0.070 3.5500000
pair_coeff 5 5 0.070 3.5500000
pair_coeff 6 6 0.070 3.5500000
pair_coeff 7 7 0.030 2.4200000
pair_coeff 8 8 0.030 2.4200000
pair_coeff 9 9 0.030 2.4200000
pair_coeff 10 10 0.030 2.4200000
pair_coeff 11 11 0.030 2.4200000
pair_coeff 12 12 0.030 2.4200000


bond_coeff       1   469.0000     1.4000
bond_coeff       2   469.0000     1.4000
bond_coeff       3   469.0000     1.4000
bond_coeff       4   469.0000     1.4000
bond_coeff       5   469.0000     1.4000
bond_coeff       6   367.0000     1.0800
bond_coeff       7   367.0000     1.0800
bond_coeff       8   367.0000     1.0800
bond_coeff       9   367.0000     1.0800
bond_coeff      10   367.0000     1.0800
bond_coeff      11   367.0000     1.0800
bond_coeff      12   469.0000     1.4000

angle_coeff 1 63.000 120.000
angle_coeff 2 63.000 120.000
angle_coeff 3 63.000 120.000
angle_coeff 4 63.000 120.000
angle_coeff 5 35.000 120.000
angle_coeff 6 35.000 120.000
angle_coeff 7 35.000 120.000
angle_coeff 8 35.000 120.000
angle_coeff 9 35.000 120.000
angle_coeff 10 35.000 120.000
angle_coeff 11 35.000 120.000
angle_coeff 12 35.000 120.000
angle_coeff 13 35.000 120.000
angle_coeff 14 35.000 120.000
angle_coeff 15 63.000 120.000
angle_coeff 16 35.000 120.000
angle_coeff 17 63.000 120.000
angle_coeff 18 35.000 120.000

dihedral_coeff 1 0.000 7.250 0.000 0.000
dihedral_coeff 2 0.000 7.250 0.000 0.000
dihedral_coeff 3 0.000 7.250 0.000 0.000
dihedral_coeff 4 0.000 7.250 0.000 0.000
dihedral_coeff 5 0.000 7.250 0.000 0.000
dihedral_coeff 6 0.000 7.250 0.000 0.000
dihedral_coeff 7 0.000 7.250 0.000 0.000
dihedral_coeff 8 0.000 7.250 0.000 0.000
dihedral_coeff 9 0.000 7.250 0.000 0.000
dihedral_coeff 10 0.000 7.250 0.000 0.000
dihedral_coeff 11 0.000 7.250 0.000 0.000
dihedral_coeff 12 0.000 7.250 0.000 0.000
dihedral_coeff 13 0.000 7.250 0.000 0.000
dihedral_coeff 14 0.000 7.250 0.000 0.000
dihedral_coeff 15 0.000 7.250 0.000 0.000
dihedral_coeff 16 0.000 7.250 0.000 0.000
dihedral_coeff 17 0.000 7.250 0.000 0.000
dihedral_coeff 18 0.000 7.250 0.000 0.000
dihedral_coeff 19 0.000 7.250 0.000 0.000
dihedral_coeff 20 0.000 7.250 0.000 0.000
dihedral_coeff 21 0.000 7.250 0.000 0.000
dihedral_coeff 22 0.000 7.250 0.000 0.000
dihedral_coeff 23 0.000 7.250 0.000 0.000
dihedral_coeff 24 0.000 7.250 0.000 0.000

improper_coeff 1 2.500 -1 2
improper_coeff 2 2.500 -1 2
improper_coeff 3 2.500 -1 2
improper_coeff 4 2.500 -1 2
improper_coeff 5 2.500 -1 2
improper_coeff 6 2.500 -1 2


# Methanol coeffs
mass 13 12.011
mass 14 15.999
mass 15 1.008
mass 16 1.008
mass 17 1.008
mass 18 1.008

pair_coeff 13 13 0.066 3.5000000
pair_coeff 14 14 0.170 3.1200000
pair_coeff 15 15 0.030 2.5000000
pair_coeff 16 16 0.030 2.5000000
pair_coeff 17 17 0.030 2.5000000
pair_coeff 18 18 0.000 0.0000000

bond_coeff 13 320.0000 1.4100
bond_coeff 14 340.0000 1.0900
bond_coeff 15 340.0000 1.0900
bond_coeff 16 340.0000 1.0900
bond_coeff 17 553.0000 0.9450

angle_coeff 19 35.000 109.500
angle_coeff 20 35.000 109.500
angle_coeff 21 35.000 109.500
angle_coeff 22 55.000 108.500
angle_coeff 23 33.000 107.800
angle_coeff 24 33.000 107.800
angle_coeff 25 33.000 107.800

dihedral_coeff 25 0.000 0.000 0.352 0.000
dihedral_coeff 26 0.000 0.000 0.352 0.000
dihedral_coeff 27 0.000 0.000 0.352 0.000

improper_coeff 7 0.000 -1 2
improper_coeff 8 0.000 -1 2


variable DT equal 1
variable TDAMP equal 100*${DT}
variable TDAMP equal 100*1

thermo_style custom step cpu cpuremain temp press etotal density xlo xhi ylo yhi zlo zhi
thermo 1000


fix 1 all nvt temp 290 290 ${TDAMP}
fix 1 all nvt temp 290 290 100
run 200000

CITE-CITE-CITE-CITE-CITE-CITE-CITE-CITE-CITE-CITE-CITE-CITE-CITE

Your simulation uses code contributions which should be cited:

- Type Label Framework: https://doi.org/10.1021/acs.jpcb.3c08419

@Article{Gissinger24,
 author = {Jacob R. Gissinger, Ilia Nikiforov, Yaser Afshar, Brendon Waters, Moon-ki Choi, Daniel S. Karls, Alexander Stukowski, Wonpil Im, Hendrik Heinz, Axel Kohlmeyer, and Ellad B. Tadmor},
 title = {Type Label Framework for Bonded Force Fields in LAMMPS},
 journal = {J. Phys. Chem. B},
 year =    2024,
 volume =  128,
 number =  13,
 pages =   {3282–-3297}
}

CITE-CITE-CITE-CITE-CITE-CITE-CITE-CITE-CITE-CITE-CITE-CITE-CITE

PPPM initialization ...
WARNING: System is not charge neutral, net charge = 0.0019 (src/kspace.cpp:327)
  using 12-bit tables for long-range coulomb (src/kspace.cpp:342)
  G vector (1/distance) = 0.26509261
  grid = 10 10 10
  stencil order = 5
  estimated absolute RMS force accuracy = 0.00025735663
  estimated relative force accuracy = 7.7502186e-07
  using double precision KISS FFT
  3d grid and FFT values/proc = 4913 1000
Generated 153 of 153 mixed pair_coeff terms from geometric mixing rule
Neighbor list info ...
  update: every = 1 steps, delay = 0 steps, check = yes
  max neighbors/atom: 2000, page size: 100000
  master list distance cutoff = 14
  ghost atom cutoff = 14
  binsize = 7, bins = 2 2 2
  1 neighbor lists, perpetual/occasional/extra = 1 0 0
  (1) pair lj/cut/coul/long, perpetual
      attributes: half, newton on
      pair build: half/bin/newton
      stencil: half/bin/3d
      bin: standard
WARNING: Inconsistent image flags (src/domain.cpp:1051)
Per MPI rank memory allocation (min/avg/max) = 11.39 | 11.39 | 11.39 Mbytes
   Step          CPU          CPULeft          Temp          Press          TotEng        Density          Xlo            Xhi            Ylo            Yhi            Zlo            Zhi      
    622500   0              0              268.40358     -957.4058       160.2582       0.75217458    -5.7444331      5.7444331     -5.7444331      5.7444331     -5.7444331      5.7444331    
    623000   0.248345       99.090619      270.20971     -665.61637      178.12466      0.75217458    -5.7444331      5.7444331     -5.7444331      5.7444331     -5.7444331      5.7444331    
    624000   0.73436088     97.180671      274.7599       3007.5518      181.72517      0.75217458    -5.7444331      5.7444331     -5.7444331      5.7444331     -5.7444331      5.7444331    
    625000   1.2108328      95.655837      279.78447     -460.99964      162.87951      0.75217458    -5.7444331      5.7444331     -5.7444331      5.7444331     -5.7444331      5.7444331    
    626000   1.7045596      95.698901      280.25451      1718.7327      166.8168       0.75217458    -5.7444331      5.7444331     -5.7444331      5.7444331     -5.7444331      5.7444331    
    627000   2.1824614      94.815847      319.72102      5203.7884      178.73043      0.75217458    -5.7444331      5.7444331     -5.7444331      5.7444331     -5.7444331      5.7444331    
    628000   2.6810482      94.811643      276.31517     -767.29305      162.66771      0.75217458    -5.7444331      5.7444331     -5.7444331      5.7444331     -5.7444331      5.7444331    
    629000   3.1860827      94.847288      301.15297     -712.38078      163.63529      0.75217458    -5.7444331      5.7444331     -5.7444331      5.7444331     -5.7444331      5.7444331    
    630000   3.683106       94.533075      275.62762     -4145.7832      171.72512      0.75217458    -5.7444331      5.7444331     -5.7444331      5.7444331     -5.7444331      5.7444331    
    631000   4.1769666      94.10461       248.21705     -45.141269      163.30387      0.75217458    -5.7444331      5.7444331     -5.7444331      5.7444331     -5.7444331      5.7444331    
    632000   4.667649       93.598661      286.89066     -2923.6586      174.58753      0.75217458    -5.7444331      5.7444331     -5.7444331      5.7444331     -5.7444331      5.7444331    
    633000   5.143549       92.828841      278.37656     -545.64321      164.3357       0.75217458    -5.7444331      5.7444331     -5.7444331      5.7444331     -5.7444331      5.7444331    
    634000   5.6030816      91.841868      281.86796     -2194.6188      186.39115      0.75217458    -5.7444331      5.7444331     -5.7444331      5.7444331     -5.7444331      5.7444331    
    635000   6.0712927      91.069394      296.95552     -949.79656      176.12591      0.75217458    -5.7444331      5.7444331     -5.7444331      5.7444331     -5.7444331      5.7444331    
    636000   6.5504896      90.493804      259.69517     -7093.9112      165.11596      0.75217458    -5.7444331      5.7444331     -5.7444331      5.7444331     -5.7444331      5.7444331    
    637000   7.0306028      89.943247      281.31003      3665.6655      161.19988      0.75217458    -5.7444331      5.7444331     -5.7444331      5.7444331     -5.7444331      5.7444331    
    638000   7.5092562      89.384376      310.6223       5073.5016      180.06581      0.75217458    -5.7444331      5.7444331     -5.7444331      5.7444331     -5.7444331      5.7444331    
    639000   7.9885549      88.842417      319.0874       3984.4173      190.24431      0.75217458    -5.7444331      5.7444331     -5.7444331      5.7444331     -5.7444331      5.7444331    
    640000   8.466875       88.297416      246.33392     -2824.734       167.27521      0.75217458    -5.7444331      5.7444331     -5.7444331      5.7444331     -5.7444331      5.7444331    
    641000   8.9468574      87.775928      272.26244     -3082.2536      162.31483      0.75217458    -5.7444331      5.7444331     -5.7444331      5.7444331     -5.7444331      5.7444331    
    642000   9.4305695      87.293232      308.87684      964.88921      167.52154      0.75217458    -5.7444331      5.7444331     -5.7444331      5.7444331     -5.7444331      5.7444331    
    643000   9.9071934      86.748356      255.37184      404.16147      151.127        0.75217458    -5.7444331      5.7444331     -5.7444331      5.7444331     -5.7444331      5.7444331    
    644000   10.398303      86.330103      309.40253      690.3946       176.34264      0.75217458    -5.7444331      5.7444331     -5.7444331      5.7444331     -5.7444331      5.7444331    
    645000   10.899397      85.984141      313.73074      4774.1548      186.92649      0.75217458    -5.7444331      5.7444331     -5.7444331      5.7444331     -5.7444331      5.7444331    
    646000   11.399062      85.614244      304.12503      2607.5978      173.05096      0.75217458    -5.7444331      5.7444331     -5.7444331      5.7444331     -5.7444331      5.7444331    
    647000   11.880861      85.105768      264.5181      -2307.7504      145.42712      0.75217458    -5.7444331      5.7444331     -5.7444331      5.7444331     -5.7444331      5.7444331    
    648000   12.362895      84.600991      276.47993     -7574.1626      178.66278      0.75217458    -5.7444331      5.7444331     -5.7444331      5.7444331     -5.7444331      5.7444331    
    649000   12.84776       84.116471      270.8604      -5941.441       174.16692      0.75217458    -5.7444331      5.7444331     -5.7444331      5.7444331     -5.7444331      5.7444331    
    650000   13.330584      83.61912       298.07512     -5547.674       182.19971      0.75217458    -5.7444331      5.7444331     -5.7444331      5.7444331     -5.7444331      5.7444331    
    651000   13.83753       83.26795       275.95295     -517.89318      170.29116      0.75217458    -5.7444331      5.7444331     -5.7444331      5.7444331     -5.7444331      5.7444331    
    652000   14.334262      82.84718       311.10936      5395.9583      172.29866      0.75217458    -5.7444331      5.7444331     -5.7444331      5.7444331     -5.7444331      5.7444331    
    653000   14.830971      82.421302      299.7169      -98.342302      165.84333      0.75217458    -5.7444331      5.7444331     -5.7444331      5.7444331     -5.7444331      5.7444331    
    654000   15.328281      81.994138      286.18216     -1506.8152      168.34495      0.75217458    -5.7444331      5.7444331     -5.7444331      5.7444331     -5.7444331      5.7444331    
    655000   15.807193      81.46785       292.44739      8315.6862      177.30929      0.75217458    -5.7444331      5.7444331     -5.7444331      5.7444331     -5.7444331      5.7444331    
    656000   16.266196      80.845424      312.99556     -333.4112       164.58916      0.75217458    -5.7444331      5.7444331     -5.7444331      5.7444331     -5.7444331      5.7444331    
    657000   16.726073      80.236671      280.4272       4270.483       168.50478      0.75217458    -5.7444331      5.7444331     -5.7444331      5.7444331     -5.7444331      5.7444331    
    658000   17.190862      79.659068      267.11162     -2973.3997      150.60343      0.75217458    -5.7444331      5.7444331     -5.7444331      5.7444331     -5.7444331      5.7444331    
    659000   17.655739      79.088043      293.75821     -2140.3651      165.28348      0.75217458    -5.7444331      5.7444331     -5.7444331      5.7444331     -5.7444331      5.7444331    
    660000   18.121179      78.525112      319.88191     -5171.6968      185.80861      0.75217458    -5.7444331      5.7444331     -5.7444331      5.7444331     -5.7444331      5.7444331    
    661000   18.597154      78.011443      297.86364      1826.2691      174.59929      0.75217458    -5.7444331      5.7444331     -5.7444331      5.7444331     -5.7444331      5.7444331    
    662000   19.093856      77.583899      289.27359     -2903.5179      169.96208      0.75217458    -5.7444331      5.7444331     -5.7444331      5.7444331     -5.7444331      5.7444331    
    663000   19.586232      77.135902      267.3016      -649.38528      167.00933      0.75217458    -5.7444331      5.7444331     -5.7444331      5.7444331     -5.7444331      5.7444331    
    664000   20.080442      76.692776      245.34845      4719.0994      142.85375      0.75217458    -5.7444331      5.7444331     -5.7444331      5.7444331     -5.7444331      5.7444331    
    665000   20.564751      76.210552      294.26275     -2180.3358      188.11571      0.75217458    -5.7444331      5.7444331     -5.7444331      5.7444331     -5.7444331      5.7444331    
    666000   21.068205      75.797108      304.24445     -129.70993      169.11889      0.75217458    -5.7444331      5.7444331     -5.7444331      5.7444331     -5.7444331      5.7444331    
    667000   21.655753      75.67348       315.68216     -2061.6226      174.09496      0.75217458    -5.7444331      5.7444331     -5.7444331      5.7444331     -5.7444331      5.7444331    
    668000   22.157734      75.238902      289.9791      -5336.8635      175.26553      0.75217458    -5.7444331      5.7444331     -5.7444331      5.7444331     -5.7444331      5.7444331    
    669000   22.644376      74.750792      278.35455      3712.5493      150.20281      0.75217458    -5.7444331      5.7444331     -5.7444331      5.7444331     -5.7444331      5.7444331    
    670000   23.135812      74.278136      301.44707      5476.8836      180.43162      0.75217458    -5.7444331      5.7444331     -5.7444331      5.7444331     -5.7444331      5.7444331    
    671000   23.625115      73.798042      269.93174     -9067.4082      155.29696      0.75217458    -5.7444331      5.7444331     -5.7444331      5.7444331     -5.7444331      5.7444331    
    672000   24.124202      73.347323      306.20024     -475.58097      175.96664      0.75217458    -5.7444331      5.7444331     -5.7444331      5.7444331     -5.7444331      5.7444331    
    673000   24.612581      72.862997      290.15132      693.8788       168.76843      0.75217458    -5.7444331      5.7444331     -5.7444331      5.7444331     -5.7444331      5.7444331    
    674000   25.108784      72.401057      272.43841      3904.65        161.6275       0.75217458    -5.7444331      5.7444331     -5.7444331      5.7444331     -5.7444331      5.7444331    
    675000   25.607521      71.944944      306.20302      691.20143      168.93178      0.75217458    -5.7444331      5.7444331     -5.7444331      5.7444331     -5.7444331      5.7444331    
    676000   26.12505       71.53869       282.36834      4115.5286      162.2722       0.75217458    -5.7444331      5.7444331     -5.7444331      5.7444331     -5.7444331      5.7444331    
    677000   26.630467      71.09602       293.6065       2779.4573      193.47061      0.75217458    -5.7444331      5.7444331     -5.7444331      5.7444331     -5.7444331      5.7444331    
    678000   27.137585      70.655516      269.12832      1520.6005      185.41481      0.75217458    -5.7444331      5.7444331     -5.7444331      5.7444331     -5.7444331      5.7444331    
    679000   27.646233      70.216541      275.06586      4148.923       155.9028       0.75217458    -5.7444331      5.7444331     -5.7444331      5.7444331     -5.7444331      5.7444331    
    680000   28.140363      69.739162      269.9497      -5039.3648      166.18862      0.75217458    -5.7444331      5.7444331     -5.7444331      5.7444331     -5.7444331      5.7444331    
    681000   28.63826       69.270323      310.26393     -1643.2804      176.78258      0.75217458    -5.7444331      5.7444331     -5.7444331      5.7444331     -5.7444331      5.7444331    
    682000   29.130693      68.787604      298.60257     -5768.0557      184.12012      0.75217458    -5.7444331      5.7444331     -5.7444331      5.7444331     -5.7444331      5.7444331    
    683000   29.63198       68.324982      275.59524      500.32833      173.0606       0.75217458    -5.7444331      5.7444331     -5.7444331      5.7444331     -5.7444331      5.7444331    
    684000   30.200827      68.013248      270.5235       3595.2803      151.04755      0.75217458    -5.7444331      5.7444331     -5.7444331      5.7444331     -5.7444331      5.7444331    
    685000   30.733324      67.613316      272.0077      -1761.3545      161.22365      0.75217458    -5.7444331      5.7444331     -5.7444331      5.7444331     -5.7444331      5.7444331    
    686000   31.236892      67.147024      289.73181     -2789.5455      185.01716      0.75217458    -5.7444331      5.7444331     -5.7444331      5.7444331     -5.7444331      5.7444331    
    687000   31.730497      66.658642      284.56126      3119.6599      165.86645      0.75217458    -5.7444331      5.7444331     -5.7444331      5.7444331     -5.7444331      5.7444331    
    688000   32.224444      66.170807      288.23739      6324.3908      167.09544      0.75217458    -5.7444331      5.7444331     -5.7444331      5.7444331     -5.7444331      5.7444331    
    689000   32.728162      65.702403      298.98997      5340.358       179.18243      0.75217458    -5.7444331      5.7444331     -5.7444331      5.7444331     -5.7444331      5.7444331    
    690000   33.230573      65.230387      270.08652     -121.34833      170.07517      0.75217458    -5.7444331      5.7444331     -5.7444331      5.7444331     -5.7444331      5.7444331    
    691000   33.730646      64.752994      264.83492     -1806.1331      152.12951      0.75217458    -5.7444331      5.7444331     -5.7444331      5.7444331     -5.7444331      5.7444331    
    692000   34.261704      64.333131      311.06037     -6393.6638      178.63756      0.75217458    -5.7444331      5.7444331     -5.7444331      5.7444331     -5.7444331      5.7444331    
    693000   34.770901      63.869956      269.32956      5910.7682      199.33198      0.75217458    -5.7444331      5.7444331     -5.7444331      5.7444331     -5.7444331      5.7444331    
    694000   35.268859      63.385294      296.78309     -1486.1873      182.8134       0.75217458    -5.7444331      5.7444331     -5.7444331      5.7444331     -5.7444331      5.7444331    
    695000   35.78582       62.933686      317.00813      6720.8238      182.66439      0.75217458    -5.7444331      5.7444331     -5.7444331      5.7444331     -5.7444331      5.7444331    
    696000   36.296115      62.468827      321.95233      6819.8182      183.60351      0.75217458    -5.7444331      5.7444331     -5.7444331      5.7444331     -5.7444331      5.7444331    
    697000   36.800171      61.992235      306.82709     -3559.321       171.13094      0.75217458    -5.7444331      5.7444331     -5.7444331      5.7444331     -5.7444331      5.7444331    
    698000   37.305181      61.516494      317.00551      6592.5084      190.88838      0.75217458    -5.7444331      5.7444331     -5.7444331      5.7444331     -5.7444331      5.7444331    
    699000   37.806426      61.033905      324.84012      3551.3842      171.96777      0.75217458    -5.7444331      5.7444331     -5.7444331      5.7444331     -5.7444331      5.7444331    
    700000   38.302518      60.542693      293.32457     -6077.9651      165.48948      0.75217458    -5.7444331      5.7444331     -5.7444331      5.7444331     -5.7444331      5.7444331    
    701000   38.796354      60.047861      256.76759      2535.9571      164.62444      0.75217458    -5.7444331      5.7444331     -5.7444331      5.7444331     -5.7444331      5.7444331    
    702000   39.296434      59.562522      308.37789     -376.72189      193.23297      0.75217458    -5.7444331      5.7444331     -5.7444331      5.7444331     -5.7444331      5.7444331    
    703000   39.789524      59.066437      320.96302     -792.79069      174.63527      0.75217458    -5.7444331      5.7444331     -5.7444331      5.7444331     -5.7444331      5.7444331    
    704000   40.285167      58.574139      263.89752      934.81041      154.63174      0.75217458    -5.7444331      5.7444331     -5.7444331      5.7444331     -5.7444331      5.7444331    
    705000   40.781089      58.082158      264.15738     -104.75713      165.67587      0.75217458    -5.7444331      5.7444331     -5.7444331      5.7444331     -5.7444331      5.7444331    
    706000   41.274139      57.586075      288.749       -1074.8779      182.73368      0.75217458    -5.7444331      5.7444331     -5.7444331      5.7444331     -5.7444331      5.7444331    
    707000   41.776222      57.10241       284.40596     -1313.2825      166.2673       0.75217458    -5.7444331      5.7444331     -5.7444331      5.7444331     -5.7444331      5.7444331    
    708000   42.281955      56.623203      252.0289      -1389.3055      163.54603      0.75217458    -5.7444331      5.7444331     -5.7444331      5.7444331     -5.7444331      5.7444331    
    709000   42.795045      56.153038      305.65409     -1577.1175      178.08089      0.75217458    -5.7444331      5.7444331     -5.7444331      5.7444331     -5.7444331      5.7444331    
    710000   43.293703      55.663334      313.05464      4119.5464      183.07429      0.75217458    -5.7444331      5.7444331     -5.7444331      5.7444331     -5.7444331      5.7444331    
    711000   43.793546      55.174921      292.20686     -2905.3853      166.49383      0.75217458    -5.7444331      5.7444331     -5.7444331      5.7444331     -5.7444331      5.7444331    
    712000   44.290359      54.682511      309.91146     -1659.3518      181.13706      0.75217458    -5.7444331      5.7444331     -5.7444331      5.7444331     -5.7444331      5.7444331    
    713000   44.786583      54.189291      284.47535     -1915.9605      185.05691      0.75217458    -5.7444331      5.7444331     -5.7444331      5.7444331     -5.7444331      5.7444331    
    714000   45.27707       53.689204      290.18389      1294.895       184.55352      0.75217458    -5.7444331      5.7444331     -5.7444331      5.7444331     -5.7444331      5.7444331    
    715000   45.791501      53.217151      262.65254      7503.6718      164.48847      0.75217458    -5.7444331      5.7444331     -5.7444331      5.7444331     -5.7444331      5.7444331    
    716000   46.290051      52.726102      306.64265      2200.0826      179.3597       0.75217458    -5.7444331      5.7444331     -5.7444331      5.7444331     -5.7444331      5.7444331    
    717000   46.792074      52.238771      285.77305     -4688.9015      162.42999      0.75217458    -5.7444331      5.7444331     -5.7444331      5.7444331     -5.7444331      5.7444331    
    718000   47.298298      51.755729      282.59764     -6343.146       178.23692      0.75217458    -5.7444331      5.7444331     -5.7444331      5.7444331     -5.7444331      5.7444331    
    719000   47.81012       51.278213      280.82853     -1321.7873      156.28566      0.75217458    -5.7444331      5.7444331     -5.7444331      5.7444331     -5.7444331      5.7444331    
    720000   48.320319      50.798285      287.4122      -1992.0724      167.0391       0.75217458    -5.7444331      5.7444331     -5.7444331      5.7444331     -5.7444331      5.7444331    
    721000   48.820197      50.307107      295.97732     -911.52828      177.25305      0.75217458    -5.7444331      5.7444331     -5.7444331      5.7444331     -5.7444331      5.7444331    
    722000   49.320431      49.816115      290.02188     -1439.5721      164.48108      0.75217458    -5.7444331      5.7444331     -5.7444331      5.7444331     -5.7444331      5.7444331    
    723000   49.819212      49.323499      279.75712     -4229.2312      182.4652       0.75217458    -5.7444331      5.7444331     -5.7444331      5.7444331     -5.7444331      5.7444331    
    724000   50.314927      48.827787      310.77516     -7399.9804      186.49293      0.75217458    -5.7444331      5.7444331     -5.7444331      5.7444331     -5.7444331      5.7444331    
    725000   50.807112      48.328717      288.29672     -4266.9656      170.34393      0.75217458    -5.7444331      5.7444331     -5.7444331      5.7444331     -5.7444331      5.7444331    
    726000   51.315648      47.845025      286.80634     -7410.2966      174.37429      0.75217458    -5.7444331      5.7444331     -5.7444331      5.7444331     -5.7444331      5.7444331    
    727000   51.82674       47.363194      296.13403      2001.0272      181.69579      0.75217458    -5.7444331      5.7444331     -5.7444331      5.7444331     -5.7444331      5.7444331    
    728000   52.326684      46.870822      349.42978     -3011.5175      212.38773      0.75217458    -5.7444331      5.7444331     -5.7444331      5.7444331     -5.7444331      5.7444331    
    729000   52.827562      46.379127      271.851       -5010.7867      177.25531      0.75217458    -5.7444331      5.7444331     -5.7444331      5.7444331     -5.7444331      5.7444331    
    730000   53.325831      45.885018      271.43974      3511.3203      181.98714      0.75217458    -5.7444331      5.7444331     -5.7444331      5.7444331     -5.7444331      5.7444331    
    731000   53.826578      45.392921      282.17251      1635.8328      167.56694      0.75217458    -5.7444331      5.7444331     -5.7444331      5.7444331     -5.7444331      5.7444331    
    732000   54.327798      44.901057      300.64359      1151.8442      169.37304      0.75217458    -5.7444331      5.7444331     -5.7444331      5.7444331     -5.7444331      5.7444331    
    733000   54.829494      44.40941       295.16787     -3588.0807      201.80931      0.75217458    -5.7444331      5.7444331     -5.7444331      5.7444331     -5.7444331      5.7444331    
    734000   55.349201      43.931878      261.31918     -5450.2761      170.85235      0.75217458    -5.7444331      5.7444331     -5.7444331      5.7444331     -5.7444331      5.7444331    
    735000   55.848593      43.437795      319.27256      1331.553       184.33088      0.75217458    -5.7444331      5.7444331     -5.7444331      5.7444331     -5.7444331      5.7444331    
    736000   56.357673      42.951003      279.11304     -4267.154       183.35865      0.75217458    -5.7444331      5.7444331     -5.7444331      5.7444331     -5.7444331      5.7444331    
    737000   56.858074      42.45734       273.58135     -1502.5945      172.8078       0.75217458    -5.7444331      5.7444331     -5.7444331      5.7444331     -5.7444331      5.7444331    
    738000   57.360902      41.965336      317.14172     -10160.852      186.43324      0.75217458    -5.7444331      5.7444331     -5.7444331      5.7444331     -5.7444331      5.7444331    
    739000   57.861925      41.471852      279.23596     -33.504162      183.64955      0.75217458    -5.7444331      5.7444331     -5.7444331      5.7444331     -5.7444331      5.7444331    
    740000   58.377927      40.988758      281.1647      -383.3455       167.14522      0.75217458    -5.7444331      5.7444331     -5.7444331      5.7444331     -5.7444331      5.7444331    
    741000   58.875447      40.492396      303.2098       2998.9783      188.25221      0.75217458    -5.7444331      5.7444331     -5.7444331      5.7444331     -5.7444331      5.7444331    
    742000   59.367582      39.992388      292.16727     -547.91865      175.14476      0.75217458    -5.7444331      5.7444331     -5.7444331      5.7444331     -5.7444331      5.7444331    
    743000   59.859882      39.492619      313.38855      5559.4428      188.84288      0.75217458    -5.7444331      5.7444331     -5.7444331      5.7444331     -5.7444331      5.7444331    
    744000   60.353397      38.993759      295.42173      5229.8877      176.76235      0.75217458    -5.7444331      5.7444331     -5.7444331      5.7444331     -5.7444331      5.7444331    
    745000   60.845724      38.494234      288.90339      3213.8488      174.26139      0.75217458    -5.7444331      5.7444331     -5.7444331      5.7444331     -5.7444331      5.7444331    
    746000   61.336637      37.99395       285.04175     -1766.3833      173.09233      0.75217458    -5.7444331      5.7444331     -5.7444331      5.7444331     -5.7444331      5.7444331    
    747000   61.828676      37.494499      309.07828     -595.11802      176.6392       0.75217458    -5.7444331      5.7444331     -5.7444331      5.7444331     -5.7444331      5.7444331    
    748000   62.321351      36.995543      288.24032      706.88179      182.96207      0.75217458    -5.7444331      5.7444331     -5.7444331      5.7444331     -5.7444331      5.7444331    
    749000   62.810958      36.494905      274.13819     -2437.0211      157.98318      0.75217458    -5.7444331      5.7444331     -5.7444331      5.7444331     -5.7444331      5.7444331    
    750000   63.29967       35.99393       298.52983     -2196.981       179.80455      0.75217458    -5.7444331      5.7444331     -5.7444331      5.7444331     -5.7444331      5.7444331    
    751000   63.790543      35.494349      260.04362      3584.4342      172.78344      0.75217458    -5.7444331      5.7444331     -5.7444331      5.7444331     -5.7444331      5.7444331    
    752000   64.281914      34.995174      266.33861      3300.7664      158.59257      0.75217458    -5.7444331      5.7444331     -5.7444331      5.7444331     -5.7444331      5.7444331    
    753000   64.76847       34.493554      282.02093      530.18605      168.06561      0.75217458    -5.7444331      5.7444331     -5.7444331      5.7444331     -5.7444331      5.7444331    
    754000   65.243124      33.985962      271.26826      2406.6457      169.92438      0.75217458    -5.7444331      5.7444331     -5.7444331      5.7444331     -5.7444331      5.7444331    
    755000   65.715774      33.477848      303.53517     -603.81533      174.043        0.75217458    -5.7444331      5.7444331     -5.7444331      5.7444331     -5.7444331      5.7444331    
    756000   66.189708      32.970903      302.36084     -3537.1433      174.13005      0.75217458    -5.7444331      5.7444331     -5.7444331      5.7444331     -5.7444331      5.7444331    
    757000   66.697515      32.480947      268.84462     -2242.1339      147.4055       0.75217458    -5.7444331      5.7444331     -5.7444331      5.7444331     -5.7444331      5.7444331    
    758000   67.192867      31.984797      300.36295     -5181.7507      177.70349      0.75217458    -5.7444331      5.7444331     -5.7444331      5.7444331     -5.7444331      5.7444331    
    759000   67.689699      31.489347      280.0416       146.54548      169.23414      0.75217458    -5.7444331      5.7444331     -5.7444331      5.7444331     -5.7444331      5.7444331    
    760000   68.184197      30.992817      266.8611      -3331.7016      173.38603      0.75217458    -5.7444331      5.7444331     -5.7444331      5.7444331     -5.7444331      5.7444331    
    761000   68.683958      30.498653      321.67138      3240.4052      188.38377      0.75217458    -5.7444331      5.7444331     -5.7444331      5.7444331     -5.7444331      5.7444331    
    762000   69.177563      30.001739      270.411       -4076.431       160.81453      0.75217458    -5.7444331      5.7444331     -5.7444331      5.7444331     -5.7444331      5.7444331    
    763000   69.668435      29.503714      299.3228      -2262.6201      169.49288      0.75217458    -5.7444331      5.7444331     -5.7444331      5.7444331     -5.7444331      5.7444331    
    764000   70.16165       29.00676       258.75954     -3364.5158      166.54482      0.75217458    -5.7444331      5.7444331     -5.7444331      5.7444331     -5.7444331      5.7444331    
    765000   70.653484      28.509301      270.60202      4874.4614      157.71816      0.75217458    -5.7444331      5.7444331     -5.7444331      5.7444331     -5.7444331      5.7444331    
    766000   71.151801      28.014473      295.00046     -1944.4046      205.1911       0.75217458    -5.7444331      5.7444331     -5.7444331      5.7444331     -5.7444331      5.7444331    
    767000   71.646375      27.518158      282.52493      2520.7204      173.40586      0.75217458    -5.7444331      5.7444331     -5.7444331      5.7444331     -5.7444331      5.7444331    
    768000   72.141297      27.021998      302.13803      6610.9099      184.70662      0.75217458    -5.7444331      5.7444331     -5.7444331      5.7444331     -5.7444331      5.7444331    
    769000   72.639772      26.527152      318.5438       2742.9026      181.02823      0.75217458    -5.7444331      5.7444331     -5.7444331      5.7444331     -5.7444331      5.7444331    
    770000   73.139156      26.032581      315.6677       1179.0958      178.18721      0.75217458    -5.7444331      5.7444331     -5.7444331      5.7444331     -5.7444331      5.7444331    
    771000   73.634718      25.53662       282.4972      -5362.8572      182.81921      0.75217458    -5.7444331      5.7444331     -5.7444331      5.7444331     -5.7444331      5.7444331    
    772000   74.127074      25.03958       265.11421     -4318.7834      161.19705      0.75217458    -5.7444331      5.7444331     -5.7444331      5.7444331     -5.7444331      5.7444331    
    773000   74.628926      24.545727      310.00902     -2995.4344      201.38869      0.75217458    -5.7444331      5.7444331     -5.7444331      5.7444331     -5.7444331      5.7444331    
    774000   75.118639      24.047881      323.63545      2532.3324      180.79346      0.75217458    -5.7444331      5.7444331     -5.7444331      5.7444331     -5.7444331      5.7444331    
    775000   75.592577      23.545229      322.79783      9680.3056      190.86324      0.75217458    -5.7444331      5.7444331     -5.7444331      5.7444331     -5.7444331      5.7444331    
    776000   76.099316      23.052888      268.32794     -3568.7388      164.46734      0.75217458    -5.7444331      5.7444331     -5.7444331      5.7444331     -5.7444331      5.7444331    
    777000   76.593659      22.556709      319.12617      991.84962      188.22955      0.75217458    -5.7444331      5.7444331     -5.7444331      5.7444331     -5.7444331      5.7444331    
    778000   77.087171      22.060316      246.33654      1084.7297      163.21276      0.75217458    -5.7444331      5.7444331     -5.7444331      5.7444331     -5.7444331      5.7444331    
    779000   77.580395      21.56388       312.90584      235.15202      185.65939      0.75217458    -5.7444331      5.7444331     -5.7444331      5.7444331     -5.7444331      5.7444331    
    780000   78.084484      21.070417      274.3912      -851.10197      158.74266      0.75217458    -5.7444331      5.7444331     -5.7444331      5.7444331     -5.7444331      5.7444331    
    781000   78.571617      20.572379      289.74642      3512.1343      184.53648      0.75217458    -5.7444331      5.7444331     -5.7444331      5.7444331     -5.7444331      5.7444331    
    782000   79.063394      20.075658      254.03993     -7038.7631      160.29492      0.75217458    -5.7444331      5.7444331     -5.7444331      5.7444331     -5.7444331      5.7444331    
    783000   79.563996      19.581171      309.97663     -1301.1361      190.42564      0.75217458    -5.7444331      5.7444331     -5.7444331      5.7444331     -5.7444331      5.7444331    
    784000   80.036747      19.079968      286.75887      371.03337      168.71126      0.75217458    -5.7444331      5.7444331     -5.7444331      5.7444331     -5.7444331      5.7444331    
    785000   80.514966      18.580377      261.67977      1124.6053      167.52749      0.75217458    -5.7444331      5.7444331     -5.7444331      5.7444331     -5.7444331      5.7444331    
    786000   80.988516      18.080005      320.87573      202.05247      180.0763       0.75217458    -5.7444331      5.7444331     -5.7444331      5.7444331     -5.7444331      5.7444331    
    787000   81.465621      17.580727      274.31502     -3885.4623      179.78328      0.75217458    -5.7444331      5.7444331     -5.7444331      5.7444331     -5.7444331      5.7444331    
    788000   81.951033      17.083448      264.75526     -4720.9737      170.73326      0.75217458    -5.7444331      5.7444331     -5.7444331      5.7444331     -5.7444331      5.7444331    
    789000   82.428771      16.584768      262.5471       1108.1851      158.00507      0.75217458    -5.7444331      5.7444331     -5.7444331      5.7444331     -5.7444331      5.7444331    
    790000   82.925955      16.090111      295.46904      2251.2563      188.01748      0.75217458    -5.7444331      5.7444331     -5.7444331      5.7444331     -5.7444331      5.7444331    
    791000   83.419106      15.59467       294.44722      2475.0947      163.81518      0.75217458    -5.7444331      5.7444331     -5.7444331      5.7444331     -5.7444331      5.7444331    
    792000   83.929512      15.102361      302.60255      25.051921      170.76026      0.75217458    -5.7444331      5.7444331     -5.7444331      5.7444331     -5.7444331      5.7444331    
    793000   84.421777      14.6067        298.96775      2301.8407      161.67185      0.75217458    -5.7444331      5.7444331     -5.7444331      5.7444331     -5.7444331      5.7444331    
    794000   84.915602      14.111339      253.47082     -3569.7396      157.4151       0.75217458    -5.7444331      5.7444331     -5.7444331      5.7444331     -5.7444331      5.7444331    
    795000   85.420043      13.617688      309.18917      5180.9135      180.13663      0.75217458    -5.7444331      5.7444331     -5.7444331      5.7444331     -5.7444331      5.7444331    
    796000   85.915944      13.122608      269.5619      -117.54833      153.48219      0.75217458    -5.7444331      5.7444331     -5.7444331      5.7444331     -5.7444331      5.7444331    
    797000   86.38915       12.624202      293.79029      1885.6223      173.00779      0.75217458    -5.7444331      5.7444331     -5.7444331      5.7444331     -5.7444331      5.7444331    
    798000   86.861416      12.125953      332.42006     -1172.7214      173.50916      0.75217458    -5.7444331      5.7444331     -5.7444331      5.7444331     -5.7444331      5.7444331    
    799000   87.340906      11.628959      293.27495     -4319.8432      172.13494      0.75217458    -5.7444331      5.7444331     -5.7444331      5.7444331     -5.7444331      5.7444331    
    800000   87.819803      11.132088      290.29248     -1297.4025      148.92517      0.75217458    -5.7444331      5.7444331     -5.7444331      5.7444331     -5.7444331      5.7444331    
    801000   88.30783       10.636517      279.74864     -5215.7176      159.99564      0.75217458    -5.7444331      5.7444331     -5.7444331      5.7444331     -5.7444331      5.7444331    
    802000   88.787935      10.140126      265.85433     -1584.6873      177.50631      0.75217458    -5.7444331      5.7444331     -5.7444331      5.7444331     -5.7444331      5.7444331    
    803000   89.266005      9.6436959      311.18499      3242.2864      190.29937      0.75217458    -5.7444331      5.7444331     -5.7444331      5.7444331     -5.7444331      5.7444331    
    804000   89.744348      9.1474956      281.69561     -2160.354       165.36822      0.75217458    -5.7444331      5.7444331     -5.7444331      5.7444331     -5.7444331      5.7444331    
    805000   90.27851       8.6568435      298.19949      3406.5678      175.6734       0.75217458    -5.7444331      5.7444331     -5.7444331      5.7444331     -5.7444331      5.7444331    
    806000   90.77666       8.162479       244.93988     -59.038171      151.16367      0.75217458    -5.7444331      5.7444331     -5.7444331      5.7444331     -5.7444331      5.7444331    
    807000   91.271257      7.667775       284.30957     -3410.953       170.38487      0.75217458    -5.7444331      5.7444331     -5.7444331      5.7444331     -5.7444331      5.7444331    
    808000   91.765382      7.1730353      273.97426     -3906.3033      163.40852      0.75217458    -5.7444331      5.7444331     -5.7444331      5.7444331     -5.7444331      5.7444331    
    809000   92.262732      6.6785356      276.37973     -3152.7565      163.50296      0.75217458    -5.7444331      5.7444331     -5.7444331      5.7444331     -5.7444331      5.7444331    
    810000   92.745848      6.1830566      283.35841     -3104.0737      160.04936      0.75217458    -5.7444331      5.7444331     -5.7444331      5.7444331     -5.7444331      5.7444331    
    811000   93.228196      5.6876619      328.35448      2264.2161      189.08467      0.75217458    -5.7444331      5.7444331     -5.7444331      5.7444331     -5.7444331      5.7444331    
    812000   93.711707      5.1924693      309.73685      7806.6908      165.5395       0.75217458    -5.7444331      5.7444331     -5.7444331      5.7444331     -5.7444331      5.7444331    
    813000   94.194071      4.6973421      287.77041      1620.106       165.43454      0.75217458    -5.7444331      5.7444331     -5.7444331      5.7444331     -5.7444331      5.7444331    
    814000   94.686922      4.2028139      267.04612      4922.8176      162.26173      0.75217458    -5.7444331      5.7444331     -5.7444331      5.7444331     -5.7444331      5.7444331    
    815000   95.180947      3.7083486      318.22131      3249.9877      177.38033      0.75217458    -5.7444331      5.7444331     -5.7444331      5.7444331     -5.7444331      5.7444331    
    816000   95.682166      3.2141296      268.71198     -2359.3152      156.85413      0.75217458    -5.7444331      5.7444331     -5.7444331      5.7444331     -5.7444331      5.7444331    
    817000   96.179854      2.7197388      293.05519      1475.9183      170.25621      0.75217458    -5.7444331      5.7444331     -5.7444331      5.7444331     -5.7444331      5.7444331    
    818000   96.678265      2.2253309      304.32702     -3618.2828      172.94788      0.75217458    -5.7444331      5.7444331     -5.7444331      5.7444331     -5.7444331      5.7444331    
    819000   97.213605      1.7315401      256.94666      1106.283       154.3037       0.75217458    -5.7444331      5.7444331     -5.7444331      5.7444331     -5.7444331      5.7444331    
    820000   97.738933      1.2372017      316.29804     -7241.1915      188.74938      0.75217458    -5.7444331      5.7444331     -5.7444331      5.7444331     -5.7444331      5.7444331    
    821000   98.253375      0.74246884     322.88684     -6822.7794      177.12978      0.75217458    -5.7444331      5.7444331     -5.7444331      5.7444331     -5.7444331      5.7444331    
    822000   98.746813      0.24748575     295.46722     -2543.5607      164.65558      0.75217458    -5.7444331      5.7444331     -5.7444331      5.7444331     -5.7444331      5.7444331    
    822500   98.990081      0              284.76634      3066.8026      162.93222      0.75217458    -5.7444331      5.7444331     -5.7444331      5.7444331     -5.7444331      5.7444331    
Loop time of 98.9901 on 1 procs for 200000 steps with 126 atoms

Performance: 174.563 ns/day, 0.137 hours/ns, 2020.404 timesteps/s, 254.571 katom-step/s
99.7% CPU use with 1 MPI tasks x no OpenMP threads

MPI task timing breakdown:
Section |  min time  |  avg time  |  max time  |%varavg| %total
---------------------------------------------------------------
Pair    | 71.411     | 71.411     | 71.411     |   0.0 | 72.14
Bond    | 1.8739     | 1.8739     | 1.8739     |   0.0 |  1.89
Kspace  | 17.428     | 17.428     | 17.428     |   0.0 | 17.61
Neigh   | 5.8547     | 5.8547     | 5.8547     |   0.0 |  5.91
Comm    | 2.0438     | 2.0438     | 2.0438     |   0.0 |  2.06
Output  | 0.0032491  | 0.0032491  | 0.0032491  |   0.0 |  0.00
Modify  | 0.21672    | 0.21672    | 0.21672    |   0.0 |  0.22
Other   |            | 0.1591     |            |       |  0.16

Nlocal:            126 ave         126 max         126 min
Histogram: 1 0 0 0 0 0 0 0 0 0
Nghost:           5038 ave        5038 max        5038 min
Histogram: 1 0 0 0 0 0 0 0 0 0
Neighs:          59906 ave       59906 max       59906 min
Histogram: 1 0 0 0 0 0 0 0 0 0

Total # of neighbors = 59906
Ave neighs/atom = 475.44444
Ave special neighs/atom = 5.3333333
Neighbor list builds = 5140
Dangerous builds = 0

dump prod all atom 500 prod_traj/density.atom
write_data prod_traj/prod.data
System init for write_data ...
PPPM initialization ...
  using 12-bit tables for long-range coulomb (src/kspace.cpp:342)
  G vector (1/distance) = 0.26509261
  grid = 10 10 10
  stencil order = 5
  estimated absolute RMS force accuracy = 0.00025735663
  estimated relative force accuracy = 7.7502186e-07
  using double precision KISS FFT
  3d grid and FFT values/proc = 4913 1000
Generated 153 of 153 mixed pair_coeff terms from geometric mixing rule

run 1000000
PPPM initialization ...
  using 12-bit tables for long-range coulomb (src/kspace.cpp:342)
  G vector (1/distance) = 0.26509261
  grid = 10 10 10
  stencil order = 5
  estimated absolute RMS force accuracy = 0.00025735663
  estimated relative force accuracy = 7.7502186e-07
  using double precision KISS FFT
  3d grid and FFT values/proc = 4913 1000
Generated 153 of 153 mixed pair_coeff terms from geometric mixing rule
WARNING: Inconsistent image flags (src/domain.cpp:1051)
Per MPI rank memory allocation (min/avg/max) = 11.4 | 11.4 | 11.4 Mbytes
   Step          CPU          CPULeft          Temp          Press          TotEng        Density          Xlo            Xhi            Ylo            Yhi            Zlo            Zhi      
    822500   0              0              284.76634      3066.8026      162.93222      0.75217458    -5.7444331      5.7444331     -5.7444331      5.7444331     -5.7444331      5.7444331    
    823000   0.26061625     520.97447      285.03817     -1712.1517      169.58417      0.75217458    -5.7444331      5.7444331     -5.7444331      5.7444331     -5.7444331      5.7444331    
    824000   0.7554015      502.84582      310.58757      274.24384      189.27535      0.75217458    -5.7444331      5.7444331     -5.7444331      5.7444331     -5.7444331      5.7444331    
    825000   1.2556474      501.00344      320.14929     -2553.8769      187.36463      0.75217458    -5.7444331      5.7444331     -5.7444331      5.7444331     -5.7444331      5.7444331    
    826000   1.757851       500.48537      263.03052      1928.0497      171.18378      0.75217458    -5.7444331      5.7444331     -5.7444331      5.7444331     -5.7444331      5.7444331    
    827000   2.2565818      499.20615      281.17871     -4162.0632      176.47357      0.75217458    -5.7444331      5.7444331     -5.7444331      5.7444331     -5.7444331      5.7444331    
    828000   2.7564874      498.4231       268.05506     -8217.7888      160.35606      0.75217458    -5.7444331      5.7444331     -5.7444331      5.7444331     -5.7444331      5.7444331    
    829000   3.2516305      496.99927      284.5236       4024.8623      169.73563      0.75217458    -5.7444331      5.7444331     -5.7444331      5.7444331     -5.7444331      5.7444331    
    830000   3.7442734      495.49222      275.53718     -986.13541      166.29953      0.75217458    -5.7444331      5.7444331     -5.7444331      5.7444331     -5.7444331      5.7444331    
    831000   4.2409716      494.69694      298.39005     -3932.8387      176.02569      0.75217458    -5.7444331      5.7444331     -5.7444331      5.7444331     -5.7444331      5.7444331    
    832000   4.7393888      494.14368      307.05332     -4953.2933      171.06535      0.75217458    -5.7444331      5.7444331     -5.7444331      5.7444331     -5.7444331      5.7444331    
    833000   5.2387571      493.69052      310.22443     -567.41188      178.56866      0.75217458    -5.7444331      5.7444331     -5.7444331      5.7444331     -5.7444331      5.7444331    
    834000   5.7346699      492.9323       280.65181      1058.4622      176.3386       0.75217458    -5.7444331      5.7444331     -5.7444331      5.7444331     -5.7444331      5.7444331    
    835000   6.2388482      492.86912      243.26198     -5200.1262      167.62468      0.75217458    -5.7444331      5.7444331     -5.7444331      5.7444331     -5.7444331      5.7444331    
    836000   6.748252       493.12232      261.05225     -1758.5823      175.00614      0.75217458    -5.7444331      5.7444331     -5.7444331      5.7444331     -5.7444331      5.7444331    
    837000   7.3164714      497.26781      275.57753      2568.1686      182.48106      0.75217458    -5.7444331      5.7444331     -5.7444331      5.7444331     -5.7444331      5.7444331    
    838000   7.8383828      497.86382      295.77393      871.57072      182.12806      0.75217458    -5.7444331      5.7444331     -5.7444331      5.7444331     -5.7444331      5.7444331    
    839000   8.3375026      496.96575      301.72496     -3513.0218      174.44713      0.75217458    -5.7444331      5.7444331     -5.7444331      5.7444331     -5.7444331      5.7444331    
    840000   8.8210933      495.24144      297.37527      753.15199      176.21593      0.75217458    -5.7444331      5.7444331     -5.7444331      5.7444331     -5.7444331      5.7444331    
    841000   9.3173918      494.32542      291.16687      108.45557      195.09162      0.75217458    -5.7444331      5.7444331     -5.7444331      5.7444331     -5.7444331      5.7444331    
    842000   9.8154047      493.53871      251.78849     -2344.4342      166.59415      0.75217458    -5.7444331      5.7444331     -5.7444331      5.7444331     -5.7444331      5.7444331    
    843000   10.315991      492.90311      259.63992     -7502.3251      180.19271      0.75217458    -5.7444331      5.7444331     -5.7444331      5.7444331     -5.7444331      5.7444331    
    844000   10.839807      493.33732      291.785        3085.4524      173.7616       0.75217458    -5.7444331      5.7444331     -5.7444331      5.7444331     -5.7444331      5.7444331    
    845000   11.34619       492.92894      303.3887      -564.9995       161.71831      0.75217458    -5.7444331      5.7444331     -5.7444331      5.7444331     -5.7444331      5.7444331    
    846000   11.859727      492.80956      281.17177      6273.2027      177.17346      0.75217458    -5.7444331      5.7444331     -5.7444331      5.7444331     -5.7444331      5.7444331    
    847000   12.365289      492.34041      303.90743      2979.9411      188.65975      0.75217458    -5.7444331      5.7444331     -5.7444331      5.7444331     -5.7444331      5.7444331    
    848000   12.89355       492.73591      266.40102     -4161.3218      162.89437      0.75217458    -5.7444331      5.7444331     -5.7444331      5.7444331     -5.7444331      5.7444331    
    849000   13.414105      492.77859      311.31038      3997.6427      204.54406      0.75217458    -5.7444331      5.7444331     -5.7444331      5.7444331     -5.7444331      5.7444331    
    850000   13.913539      492.03337      282.28193     -4648.6829      180.58137      0.75217458    -5.7444331      5.7444331     -5.7444331      5.7444331     -5.7444331      5.7444331    
    851000   14.412168      491.27795      295.0166      -5952.4712      185.05859      0.75217458    -5.7444331      5.7444331     -5.7444331      5.7444331     -5.7444331      5.7444331    
    852000   14.922649      490.92991      281.57663     -3028.7255      179.84036      0.75217458    -5.7444331      5.7444331     -5.7444331      5.7444331     -5.7444331      5.7444331    
    853000   15.457975      491.3609       294.74959     -3093.814       179.88966      0.75217458    -5.7444331      5.7444331     -5.7444331      5.7444331     -5.7444331      5.7444331    
    854000   15.962586      490.78618      271.11593      2083.0006      174.09684      0.75217458    -5.7444331      5.7444331     -5.7444331      5.7444331     -5.7444331      5.7444331    
    855000   16.464297      490.12946      279.99045      2569.1423      197.97838      0.75217458    -5.7444331      5.7444331     -5.7444331      5.7444331     -5.7444331      5.7444331    
    856000   16.975584      489.75831      264.65426      3879.8584      173.069        0.75217458    -5.7444331      5.7444331     -5.7444331      5.7444331     -5.7444331      5.7444331    
    857000   17.468807      488.87345      251.99843     -1776.5709      151.03225      0.75217458    -5.7444331      5.7444331     -5.7444331      5.7444331     -5.7444331      5.7444331    
    858000   17.971193      488.25961      290.66616      6083.114       177.13576      0.75217458    -5.7444331      5.7444331     -5.7444331      5.7444331     -5.7444331      5.7444331    
    859000   18.495724      488.23647      285.98704     -8385.6227      157.26151      0.75217458    -5.7444331      5.7444331     -5.7444331      5.7444331     -5.7444331      5.7444331    
    860000   19.008717      487.89043      321.11557      6054.1874      176.72282      0.75217458    -5.7444331      5.7444331     -5.7444331      5.7444331     -5.7444331      5.7444331    
    861000   19.554428      488.35283      292.89363      5137.5007      164.21853      0.75217458    -5.7444331      5.7444331     -5.7444331      5.7444331     -5.7444331      5.7444331    
    862000   20.053443      487.62867      292.29768     -2466.0274      167.61857      0.75217458    -5.7444331      5.7444331     -5.7444331      5.7444331     -5.7444331      5.7444331    
    863000   20.562685      487.15795      264.59108     -2858.5061      176.39159      0.75217458    -5.7444331      5.7444331     -5.7444331      5.7444331     -5.7444331      5.7444331    
    864000   21.063901      486.5          294.6368      -840.48301      188.37479      0.75217458    -5.7444331      5.7444331     -5.7444331      5.7444331     -5.7444331      5.7444331    
    865000   21.55938       485.72018      259.34988     -4613.3651      160.13708      0.75217458    -5.7444331      5.7444331     -5.7444331      5.7444331     -5.7444331      5.7444331    
    866000   22.061075      485.0901       314.24273      5307.1022      182.47953      0.75217458    -5.7444331      5.7444331     -5.7444331      5.7444331     -5.7444331      5.7444331    
    867000   22.557424      484.35101      298.24006      5590.7101      171.35188      0.75217458    -5.7444331      5.7444331     -5.7444331      5.7444331     -5.7444331      5.7444331    
    868000   23.053762      483.62237      308.40719      3160.1033      176.47624      0.75217458    -5.7444331      5.7444331     -5.7444331      5.7444331     -5.7444331      5.7444331    
    869000   23.558753      483.08112      287.29432     -1056.9396      171.37572      0.75217458    -5.7444331      5.7444331     -5.7444331      5.7444331     -5.7444331      5.7444331    
    870000   24.060811      482.48261      298.35755     -2501.5253      161.49449      0.75217458    -5.7444331      5.7444331     -5.7444331      5.7444331     -5.7444331      5.7444331    
    871000   24.564778      481.9255       276.37738     -2041.2585      171.34491      0.75217458    -5.7444331      5.7444331     -5.7444331      5.7444331     -5.7444331      5.7444331    
    872000   25.088709      481.75392      320.04908      9080.9093      192.48794      0.75217458    -5.7444331      5.7444331     -5.7444331      5.7444331     -5.7444331      5.7444331    
    873000   25.629504      481.88546      293.72624      1994.7356      176.7605       0.75217458    -5.7444331      5.7444331     -5.7444331      5.7444331     -5.7444331      5.7444331    
    874000   26.132449      481.29377      272.60301     -3415.3863      166.97822      0.75217458    -5.7444331      5.7444331     -5.7444331      5.7444331     -5.7444331      5.7444331    
    875000   26.657356      481.10182      278.17428      2582.8882      164.49815      0.75217458    -5.7444331      5.7444331     -5.7444331      5.7444331     -5.7444331      5.7444331    
    876000   27.172839      480.73071      281.76428     -3012.0144      167.86653      0.75217458    -5.7444331      5.7444331     -5.7444331      5.7444331     -5.7444331      5.7444331    
    877000   27.673848      480.1032       248.64135     -6827.6656      141.42127      0.75217458    -5.7444331      5.7444331     -5.7444331      5.7444331     -5.7444331      5.7444331    
    878000   28.170654      479.40871      257.14451      373.71003      164.64372      0.75217458    -5.7444331      5.7444331     -5.7444331      5.7444331     -5.7444331      5.7444331    
    879000   28.684686      479.0089       304.83915     -70.894062      174.62528      0.75217458    -5.7444331      5.7444331     -5.7444331      5.7444331     -5.7444331      5.7444331    
    880000   29.197768      478.58952      276.10955      1528.5878      153.36603      0.75217458    -5.7444331      5.7444331     -5.7444331      5.7444331     -5.7444331      5.7444331    
    881000   29.704165      478.05935      273.45593     -1829.2118      171.05952      0.75217458    -5.7444331      5.7444331     -5.7444331      5.7444331     -5.7444331      5.7444331    
    882000   30.196269      477.30406      310.4689      -140.08729      185.6308       0.75217458    -5.7444331      5.7444331     -5.7444331      5.7444331     -5.7444331      5.7444331    
    883000   30.698976      476.72213      274.30233     -1965.3156      172.36092      0.75217458    -5.7444331      5.7444331     -5.7444331      5.7444331     -5.7444331      5.7444331    
    884000   31.198436      476.09321      250.85531      2379.8301      154.23657      0.75217458    -5.7444331      5.7444331     -5.7444331      5.7444331     -5.7444331      5.7444331    
    885000   31.703         475.54502      266.1512      -6712.3312      164.70637      0.75217458    -5.7444331      5.7444331     -5.7444331      5.7444331     -5.7444331      5.7444331    
    886000   32.216537      475.13052      308.32862     -5264.7806      188.55192      0.75217458    -5.7444331      5.7444331     -5.7444331      5.7444331     -5.7444331      5.7444331    
    887000   32.731844      474.73862      329.97694      3349.7804      185.96906      0.75217458    -5.7444331      5.7444331     -5.7444331      5.7444331     -5.7444331      5.7444331    
    888000   33.238891      474.22511      310.77159     -4790.3871      176.0059       0.75217458    -5.7444331      5.7444331     -5.7444331      5.7444331     -5.7444331      5.7444331    
    889000   33.765593      473.9877       289.43372     -3705.8875      174.19459      0.75217458    -5.7444331      5.7444331     -5.7444331      5.7444331     -5.7444331      5.7444331    
    890000   34.292188      473.74025      268.26854      11090.319      160.98377      0.75217458    -5.7444331      5.7444331     -5.7444331      5.7444331     -5.7444331      5.7444331    
    891000   34.82026       473.50472      316.50355     -5427.3613      180.55535      0.75217458    -5.7444331      5.7444331     -5.7444331      5.7444331     -5.7444331      5.7444331    
    892000   35.329923      473.0143       298.79143     -6194.5052      174.26408      0.75217458    -5.7444331      5.7444331     -5.7444331      5.7444331     -5.7444331      5.7444331    
    893000   35.835136      472.46468      294.19854     -2011.7673      172.87079      0.75217458    -5.7444331      5.7444331     -5.7444331      5.7444331     -5.7444331      5.7444331    
    894000   36.337614      471.88077      299.36305      4747.1191      160.99803      0.75217458    -5.7444331      5.7444331     -5.7444331      5.7444331     -5.7444331      5.7444331    
    895000   36.880411      471.81492      327.5758      -1512.0827      186.19799      0.75217458    -5.7444331      5.7444331     -5.7444331      5.7444331     -5.7444331      5.7444331    
    896000   37.408513      471.55086      277.46955     -325.12094      169.35143      0.75217458    -5.7444331      5.7444331     -5.7444331      5.7444331     -5.7444331      5.7444331    
    897000   37.908361      470.92871      303.34306      2141.5583      182.529        0.75217458    -5.7444331      5.7444331     -5.7444331      5.7444331     -5.7444331      5.7444331    
    898000   38.431091      470.59         321.27657      615.12306      186.06945      0.75217458    -5.7444331      5.7444331     -5.7444331      5.7444331     -5.7444331      5.7444331    
    899000   38.93749       470.04931      320.38612      8709.2533      172.47969      0.75217458    -5.7444331      5.7444331     -5.7444331      5.7444331     -5.7444331      5.7444331    
    900000   39.450602      469.58944      298.73916      7688.4931      161.56401      0.75217458    -5.7444331      5.7444331     -5.7444331      5.7444331     -5.7444331      5.7444331    
    901000   39.970451      469.20729      302.88616      1879.6613      185.40053      0.75217458    -5.7444331      5.7444331     -5.7444331      5.7444331     -5.7444331      5.7444331    
    902000   40.494947      468.87546      261.65181      791.29137      168.35451      0.75217458    -5.7444331      5.7444331     -5.7444331      5.7444331     -5.7444331      5.7444331    
    903000   41.00277       468.34842      342.39849      304.08639      190.14526      0.75217458    -5.7444331      5.7444331     -5.7444331      5.7444331     -5.7444331      5.7444331    
    904000   41.49939       467.69558      303.46232      9398.6541      184.07104      0.75217458    -5.7444331      5.7444331     -5.7444331      5.7444331     -5.7444331      5.7444331    
    905000   42.00419       467.13751      278.14791      3604.9837      162.41773      0.75217458    -5.7444331      5.7444331     -5.7444331      5.7444331     -5.7444331      5.7444331    
    906000   42.510571      466.59808      297.29641     -316.16824      172.42846      0.75217458    -5.7444331      5.7444331     -5.7444331      5.7444331     -5.7444331      5.7444331    
    907000   43.010349      465.98787      309.40473      1567.0214      191.81342      0.75217458    -5.7444331      5.7444331     -5.7444331      5.7444331     -5.7444331      5.7444331    
    908000   43.512593      465.40663      301.59649     -258.275        167.93243      0.75217458    -5.7444331      5.7444331     -5.7444331      5.7444331     -5.7444331      5.7444331    
    909000   44.016515      464.84493      274.96315     -9068.7616      173.21099      0.75217458    -5.7444331      5.7444331     -5.7444331      5.7444331     -5.7444331      5.7444331    
    910000   44.518976      464.26934      290.44044      529.58729      178.03714      0.75217458    -5.7444331      5.7444331     -5.7444331      5.7444331     -5.7444331      5.7444331    
    911000   45.035961      463.84497      278.46792      774.52314      174.42961      0.75217458    -5.7444331      5.7444331     -5.7444331      5.7444331     -5.7444331      5.7444331    
    912000   45.531026      463.19552      305.83727     -9468.2644      179.3254       0.75217458    -5.7444331      5.7444331     -5.7444331      5.7444331     -5.7444331      5.7444331    
    913000   46.044786      462.73739      263.5956       1018.984       163.13376      0.75217458    -5.7444331      5.7444331     -5.7444331      5.7444331     -5.7444331      5.7444331    
    914000   46.552548      462.21847      323.90274     -7003.8278      181.80456      0.75217458    -5.7444331      5.7444331     -5.7444331      5.7444331     -5.7444331      5.7444331    
    915000   47.053916      461.63707      279.24658     -1046.1223      183.88434      0.75217458    -5.7444331      5.7444331     -5.7444331      5.7444331     -5.7444331      5.7444331    
    916000   47.551365      461.01939      262.82937      3720.6278      151.22439      0.75217458    -5.7444331      5.7444331     -5.7444331      5.7444331     -5.7444331      5.7444331    
    917000   48.051054      460.42571      316.56045     -2121.0776      190.83515      0.75217458    -5.7444331      5.7444331     -5.7444331      5.7444331     -5.7444331      5.7444331    
    918000   48.551394      459.84017      254.19142      4796.2984      163.83467      0.75217458    -5.7444331      5.7444331     -5.7444331      5.7444331     -5.7444331      5.7444331    
    919000   49.053017      459.26841      312.62456      3805.0076      184.32597      0.75217458    -5.7444331      5.7444331     -5.7444331      5.7444331     -5.7444331      5.7444331    
    920000   49.532704      458.49503      258.32535      5906.0608      166.37648      0.75217458    -5.7444331      5.7444331     -5.7444331      5.7444331     -5.7444331      5.7444331    
    921000   50.010377      457.70919      284.83231     -3083.9487      163.9909       0.75217458    -5.7444331      5.7444331     -5.7444331      5.7444331     -5.7444331      5.7444331    
    922000   50.493608      456.97985      275.73868      1891.5688      181.40852      0.75217458    -5.7444331      5.7444331     -5.7444331      5.7444331     -5.7444331      5.7444331    
    923000   50.979199      456.27653      284.20291      6006.6686      169.15156      0.75217458    -5.7444331      5.7444331     -5.7444331      5.7444331     -5.7444331      5.7444331    
    924000   51.48922       455.79374      268.25308      1408.9123      176.08173      0.75217458    -5.7444331      5.7444331     -5.7444331      5.7444331     -5.7444331      5.7444331    
    925000   51.99146       455.2423       270.75815     -7250.3776      190.22647      0.75217458    -5.7444331      5.7444331     -5.7444331      5.7444331     -5.7444331      5.7444331    
    926000   52.490785      454.66656      290.18551     -3475.9292      179.54746      0.75217458    -5.7444331      5.7444331     -5.7444331      5.7444331     -5.7444331      5.7444331    
    927000   52.987035      454.06594      293.16829     -263.63369      171.0804       0.75217458    -5.7444331      5.7444331     -5.7444331      5.7444331     -5.7444331      5.7444331    
    928000   53.465604      453.31737      280.40701     -1323.0452      173.99664      0.75217458    -5.7444331      5.7444331     -5.7444331      5.7444331     -5.7444331      5.7444331    
    929000   53.961925      452.72282      339.19139      5142.6204      206.40764      0.75217458    -5.7444331      5.7444331     -5.7444331      5.7444331     -5.7444331      5.7444331    
    930000   54.455354      452.10608      295.88879     -4178.3589      170.88923      0.75217458    -5.7444331      5.7444331     -5.7444331      5.7444331     -5.7444331      5.7444331    
    931000   54.958434      451.57092      294.06924      2849.4905      162.17003      0.75217458    -5.7444331      5.7444331     -5.7444331      5.7444331     -5.7444331      5.7444331    
    932000   55.472429      451.1251       309.88906     -1147.2881      191.11879      0.75217458    -5.7444331      5.7444331     -5.7444331      5.7444331     -5.7444331      5.7444331    
    933000   55.969401      450.54102      291.88766      5863.4858      182.21372      0.75217458    -5.7444331      5.7444331     -5.7444331      5.7444331     -5.7444331      5.7444331    
    934000   56.467944      449.97102      306.12038      830.48404      163.00379      0.75217458    -5.7444331      5.7444331     -5.7444331      5.7444331     -5.7444331      5.7444331    
    935000   56.964078      449.38329      297.15279      674.69328      179.1233       0.75217458    -5.7444331      5.7444331     -5.7444331      5.7444331     -5.7444331      5.7444331    
    936000   57.457918      448.77925      326.01423     -2167.0658      189.46642      0.75217458    -5.7444331      5.7444331     -5.7444331      5.7444331     -5.7444331      5.7444331    
    937000   57.939245      448.08036      300.66581      2081.5365      175.20469      0.75217458    -5.7444331      5.7444331     -5.7444331      5.7444331     -5.7444331      5.7444331    
    938000   58.419902      447.38012      279.80338     -2712.1716      170.56201      0.75217458    -5.7444331      5.7444331     -5.7444331      5.7444331     -5.7444331      5.7444331    
    939000   58.902523      446.69853      283.54749     -2332.0226      166.94749      0.75217458    -5.7444331      5.7444331     -5.7444331      5.7444331     -5.7444331      5.7444331    
    940000   59.400851      446.13832      273.89391     -4123.2801      164.28355      0.75217458    -5.7444331      5.7444331     -5.7444331      5.7444331     -5.7444331      5.7444331    
    941000   59.904955      445.6221       286.46091     -3370.9495      186.68         0.75217458    -5.7444331      5.7444331     -5.7444331      5.7444331     -5.7444331      5.7444331    
    942000   60.405843      445.08239      303.51966     -219.81606      172.89266      0.75217458    -5.7444331      5.7444331     -5.7444331      5.7444331     -5.7444331      5.7444331    
    943000   60.906595      444.54234      292.82926      2475.7888      169.99561      0.75217458    -5.7444331      5.7444331     -5.7444331      5.7444331     -5.7444331      5.7444331    
    944000   61.410226      444.02373      278.255        2636.1297      172.11392      0.75217458    -5.7444331      5.7444331     -5.7444331      5.7444331     -5.7444331      5.7444331    
    945000   61.927221      443.60112      285.06078     -2063.4801      167.47789      0.75217458    -5.7444331      5.7444331     -5.7444331      5.7444331     -5.7444331      5.7444331    
    946000   62.433034      443.09761      276.08387     -3348.2457      163.5012       0.75217458    -5.7444331      5.7444331     -5.7444331      5.7444331     -5.7444331      5.7444331    
    947000   62.932085      442.54651      263.8091      -1281.7356      156.44161      0.75217458    -5.7444331      5.7444331     -5.7444331      5.7444331     -5.7444331      5.7444331    
    948000   63.443563      442.08284      313.10509      609.60137      192.68136      0.75217458    -5.7444331      5.7444331     -5.7444331      5.7444331     -5.7444331      5.7444331    
    949000   63.943001      441.53527      288.69411      8432.9846      168.3514       0.75217458    -5.7444331      5.7444331     -5.7444331      5.7444331     -5.7444331      5.7444331    
    950000   64.447771      441.02495      279.45392     -1289.5528      165.62575      0.75217458    -5.7444331      5.7444331     -5.7444331      5.7444331     -5.7444331      5.7444331    
    951000   64.953745      440.52287      277.47222      1297.6517      174.53567      0.75217458    -5.7444331      5.7444331     -5.7444331      5.7444331     -5.7444331      5.7444331    
    952000   65.451082      439.96268      281.59277      769.30293      166.06992      0.75217458    -5.7444331      5.7444331     -5.7444331      5.7444331     -5.7444331      5.7444331    
    953000   65.95197       439.42712      274.0654      -12419.661      153.13441      0.75217458    -5.7444331      5.7444331     -5.7444331      5.7444331     -5.7444331      5.7444331    
    954000   66.449183      438.8678       295.84098     -2811.5343      171.13067      0.75217458    -5.7444331      5.7444331     -5.7444331      5.7444331     -5.7444331      5.7444331    
    955000   66.94642       438.30959      304.01571     -2990.8341      174.97624      0.75217458    -5.7444331      5.7444331     -5.7444331      5.7444331     -5.7444331      5.7444331    
    956000   67.449002      437.78697      281.17756     -2858.3598      158.53593      0.75217458    -5.7444331      5.7444331     -5.7444331      5.7444331     -5.7444331      5.7444331    
    957000   67.978579      437.43837      269.25981     -744.27862      171.57709      0.75217458    -5.7444331      5.7444331     -5.7444331      5.7444331     -5.7444331      5.7444331    
    958000   68.478354      436.89696      300.4119       1662.6053      161.71667      0.75217458    -5.7444331      5.7444331     -5.7444331      5.7444331     -5.7444331      5.7444331    
    959000   68.977923      436.35485      295.1256       6413.4076      178.25606      0.75217458    -5.7444331      5.7444331     -5.7444331      5.7444331     -5.7444331      5.7444331    
    960000   69.480043      435.82937      326.9367      -3709.2163      175.91381      0.75217458    -5.7444331      5.7444331     -5.7444331      5.7444331     -5.7444331      5.7444331    
    961000   69.978944      435.28419      304.31048     -2304.0939      185.63252      0.75217458    -5.7444331      5.7444331     -5.7444331      5.7444331     -5.7444331      5.7444331    
    962000   70.486876      434.79539      289.45607     -2143.9919      184.48363      0.75217458    -5.7444331      5.7444331     -5.7444331      5.7444331     -5.7444331      5.7444331    
    963000   70.991148      434.28393      288.09143     -7003.2804      172.57657      0.75217458    -5.7444331      5.7444331     -5.7444331      5.7444331     -5.7444331      5.7444331    
    964000   71.491737      433.75022      303.21809     -8702.492       176.61376      0.75217458    -5.7444331      5.7444331     -5.7444331      5.7444331     -5.7444331      5.7444331    
    965000   71.998559      433.25449      281.74657      4439.6216      167.78341      0.75217458    -5.7444331      5.7444331     -5.7444331      5.7444331     -5.7444331      5.7444331    
    966000   72.506998      432.76825      265.55061     -4593.9426      168.81875      0.75217458    -5.7444331      5.7444331     -5.7444331      5.7444331     -5.7444331      5.7444331    
    967000   73.00736       432.23389      292.17271      1073.7475      176.55233      0.75217458    -5.7444331      5.7444331     -5.7444331      5.7444331     -5.7444331      5.7444331    
    968000   73.509309      431.70931      314.12809     -207.86969      182.86491      0.75217458    -5.7444331      5.7444331     -5.7444331      5.7444331     -5.7444331      5.7444331    
    969000   74.013447      431.1978       295.24681     -1203.4556      166.02367      0.75217458    -5.7444331      5.7444331     -5.7444331      5.7444331     -5.7444331      5.7444331    
    970000   74.542223      430.82879      296.68833      219.91505      176.92555      0.75217458    -5.7444331      5.7444331     -5.7444331      5.7444331     -5.7444331      5.7444331    
    971000   75.038775      430.27284      286.59476      3686.7986      171.35372      0.75217458    -5.7444331      5.7444331     -5.7444331      5.7444331     -5.7444331      5.7444331    
    972000   75.540179      429.7453       251.94533      3168.9993      157.0083       0.75217458    -5.7444331      5.7444331     -5.7444331      5.7444331     -5.7444331      5.7444331    
    973000   76.040302      429.21088      259.15841      6773.7874      165.97473      0.75217458    -5.7444331      5.7444331     -5.7444331      5.7444331     -5.7444331      5.7444331    
    974000   76.554277      428.75449      283.67905     -3027.2521      176.58992      0.75217458    -5.7444331      5.7444331     -5.7444331      5.7444331     -5.7444331      5.7444331    
    975000   77.052728      428.21106      317.17804      2264.3951      200.71769      0.75217458    -5.7444331      5.7444331     -5.7444331      5.7444331     -5.7444331      5.7444331    
    976000   77.549504      427.65899      284.47321     -5694.9262      165.74404      0.75217458    -5.7444331      5.7444331     -5.7444331      5.7444331     -5.7444331      5.7444331    
    977000   78.051547      427.13647      286.34284     -2928.4019      186.19337      0.75217458    -5.7444331      5.7444331     -5.7444331      5.7444331     -5.7444331      5.7444331    
    978000   78.55284       426.61012      311.3497      -2215.0294      175.10344      0.75217458    -5.7444331      5.7444331     -5.7444331      5.7444331     -5.7444331      5.7444331    
    979000   79.05617       426.09508      268.9923       3933.2694      155.79057      0.75217458    -5.7444331      5.7444331     -5.7444331      5.7444331     -5.7444331      5.7444331    
    980000   79.538076      425.46558      330.20007     -2526.8893      174.18985      0.75217458    -5.7444331      5.7444331     -5.7444331      5.7444331     -5.7444331      5.7444331    
    981000   80.02139       424.84543      325.12905     -8908.0492      182.63253      0.75217458    -5.7444331      5.7444331     -5.7444331      5.7444331     -5.7444331      5.7444331    
    982000   80.501439      424.20978      261.99832     -6728.5671      159.93064      0.75217458    -5.7444331      5.7444331     -5.7444331      5.7444331     -5.7444331      5.7444331    
    983000   81.002268      423.68477      281.25926     -5198.1403      164.61033      0.75217458    -5.7444331      5.7444331     -5.7444331      5.7444331     -5.7444331      5.7444331    
[...]
   1727000   459.11534      48.474865      310.8139       2223.5354      179.65415      0.75217458    -5.7444331      5.7444331     -5.7444331      5.7444331     -5.7444331      5.7444331    
   1728000   459.61813      47.966774      316.66059      3899.0343      169.87189      0.75217458    -5.7444331      5.7444331     -5.7444331      5.7444331     -5.7444331      5.7444331    
   1729000   460.12328      47.458937      279.93595     -1628.75        169.65831      0.75217458    -5.7444331      5.7444331     -5.7444331      5.7444331     -5.7444331      5.7444331    
   1730000   460.63177      46.951448      264.63124     -2440.61        151.29         0.75217458    -5.7444331      5.7444331     -5.7444331      5.7444331     -5.7444331      5.7444331    
   1731000   461.13042      46.442965      320.03791      4153.0483      188.22311      0.75217458    -5.7444331      5.7444331     -5.7444331      5.7444331     -5.7444331      5.7444331    
   1732000   461.62911      45.934507      291.77012      2435.0685      169.42657      0.75217458    -5.7444331      5.7444331     -5.7444331      5.7444331     -5.7444331      5.7444331    
   1733000   462.12311      45.42561       296.75926      5237.1526      179.25456      0.75217458    -5.7444331      5.7444331     -5.7444331      5.7444331     -5.7444331      5.7444331    
   1734000   462.61976      44.917004      332.3337       5230.6804      185.97847      0.75217458    -5.7444331      5.7444331     -5.7444331      5.7444331     -5.7444331      5.7444331    
   1735000   463.11319      44.408114      299.95721      1035.3252      175.57476      0.75217458    -5.7444331      5.7444331     -5.7444331      5.7444331     -5.7444331      5.7444331    
   1736000   463.61614      43.90016       298.87159     -1320.5191      174.49716      0.75217458    -5.7444331      5.7444331     -5.7444331      5.7444331     -5.7444331      5.7444331    
   1737000   464.14458      43.3946        275.68197     -4201.9402      161.80705      0.75217458    -5.7444331      5.7444331     -5.7444331      5.7444331     -5.7444331      5.7444331    
   1738000   464.64817      42.886696      311.2313      -5535.7159      166.69692      0.75217458    -5.7444331      5.7444331     -5.7444331      5.7444331     -5.7444331      5.7444331    
   1739000   465.15265      42.378883      295.42426     -11823.213      164.6089       0.75217458    -5.7444331      5.7444331     -5.7444331      5.7444331     -5.7444331      5.7444331    
   1740000   465.66038      41.871369      238.60361      1703.4362      141.48222      0.75217458    -5.7444331      5.7444331     -5.7444331      5.7444331     -5.7444331      5.7444331    
   1741000   466.15918      41.363063      275.90659     -3597.6358      165.97591      0.75217458    -5.7444331      5.7444331     -5.7444331      5.7444331     -5.7444331      5.7444331    
   1742000   466.65742      40.854728      298.9485      -1713.3939      167.36815      0.75217458    -5.7444331      5.7444331     -5.7444331      5.7444331     -5.7444331      5.7444331    
   1743000   467.15533      40.346387      238.94105     -4267.0714      154.52464      0.75217458    -5.7444331      5.7444331     -5.7444331      5.7444331     -5.7444331      5.7444331    
   1744000   467.65799      39.838473      253.13849     -3268.3024      163.93421      0.75217458    -5.7444331      5.7444331     -5.7444331      5.7444331     -5.7444331      5.7444331    
   1745000   468.16162      39.330651      318.27464     -5604.2102      190.06372      0.75217458    -5.7444331      5.7444331     -5.7444331      5.7444331     -5.7444331      5.7444331    
   1746000   468.67848      38.823935      277.34327     -3743.1765      149.56857      0.75217458    -5.7444331      5.7444331     -5.7444331      5.7444331     -5.7444331      5.7444331    
   1747000   469.16316      38.314568      281.54575     -4780.7879      176.58538      0.75217458    -5.7444331      5.7444331     -5.7444331      5.7444331     -5.7444331      5.7444331    
   1748000   469.64092      37.804698      316.36834     -2266.4134      197.38868      0.75217458    -5.7444331      5.7444331     -5.7444331      5.7444331     -5.7444331      5.7444331    
   1749000   470.13295      37.29603       313.79428      1266.6048      196.05218      0.75217458    -5.7444331      5.7444331     -5.7444331      5.7444331     -5.7444331      5.7444331    
   1750000   470.65102      36.789433      299.40986     -2154.9973      184.8409       0.75217458    -5.7444331      5.7444331     -5.7444331      5.7444331     -5.7444331      5.7444331    
   1751000   471.16049      36.282149      328.36584     -2634.3198      206.43106      0.75217458    -5.7444331      5.7444331     -5.7444331      5.7444331     -5.7444331      5.7444331    
   1752000   471.6694       35.774817      283.41232      1721.7797      167.78663      0.75217458    -5.7444331      5.7444331     -5.7444331      5.7444331     -5.7444331      5.7444331    
   1753000   472.16399      35.266413      337.84813     -7865.0331      180.61514      0.75217458    -5.7444331      5.7444331     -5.7444331      5.7444331     -5.7444331      5.7444331    
   1754000   472.66073      34.758196      299.76381     -5242.2896      179.17175      0.75217458    -5.7444331      5.7444331     -5.7444331      5.7444331     -5.7444331      5.7444331    
   1755000   473.1644       34.250507      273.01816     -2960.2574      162.47454      0.75217458    -5.7444331      5.7444331     -5.7444331      5.7444331     -5.7444331      5.7444331    
   1756000   473.64638      33.741279      331.85711      1901.0629      190.18728      0.75217458    -5.7444331      5.7444331     -5.7444331      5.7444331     -5.7444331      5.7444331    
   1757000   474.12683      33.232003      267.50965     -1769.446       166.28036      0.75217458    -5.7444331      5.7444331     -5.7444331      5.7444331     -5.7444331      5.7444331    
   1758000   474.60828      32.722858      273.27429      4950.0053      151.97572      0.75217458    -5.7444331      5.7444331     -5.7444331      5.7444331     -5.7444331      5.7444331    
   1759000   475.08311      32.213324      303.34647     -3016.7436      171.37699      0.75217458    -5.7444331      5.7444331     -5.7444331      5.7444331     -5.7444331      5.7444331    
   1760000   475.58045      31.705363      272.11755      4946.374       157.02151      0.75217458    -5.7444331      5.7444331     -5.7444331      5.7444331     -5.7444331      5.7444331    
   1761000   476.08446      31.197863      280.6884       1524.5075      170.15751      0.75217458    -5.7444331      5.7444331     -5.7444331      5.7444331     -5.7444331      5.7444331    
   1762000   476.58642      30.690238      304.55694      1989.9446      183.20963      0.75217458    -5.7444331      5.7444331     -5.7444331      5.7444331     -5.7444331      5.7444331    
   1763000   477.08292      30.182279      319.79479     -1511.362       176.50457      0.75217458    -5.7444331      5.7444331     -5.7444331      5.7444331     -5.7444331      5.7444331    
   1764000   477.58668      29.674796      286.67477      1243.307       162.96809      0.75217458    -5.7444331      5.7444331     -5.7444331      5.7444331     -5.7444331      5.7444331    
   1765000   478.08348      29.166897      277.17007      5867.6099      158.43414      0.75217458    -5.7444331      5.7444331     -5.7444331      5.7444331     -5.7444331      5.7444331    
   1766000   478.59964      28.66018       288.80407     -6650.7592      170.27975      0.75217458    -5.7444331      5.7444331     -5.7444331      5.7444331     -5.7444331      5.7444331    
   1767000   479.15026      28.155468      278.09109     -8460.4354      162.6391       0.75217458    -5.7444331      5.7444331     -5.7444331      5.7444331     -5.7444331      5.7444331    
   1768000   479.64556      27.64747       262.38025     -3765.8832      150.43092      0.75217458    -5.7444331      5.7444331     -5.7444331      5.7444331     -5.7444331      5.7444331    
   1769000   480.12349      27.138518      324.37009     -767.43776      177.6866       0.75217458    -5.7444331      5.7444331     -5.7444331      5.7444331     -5.7444331      5.7444331    
   1770000   480.59925      26.62951       277.90611      2007.7456      167.31422      0.75217458    -5.7444331      5.7444331     -5.7444331      5.7444331     -5.7444331      5.7444331    
   1771000   481.07665      26.120661      274.04936      3812.5787      177.22205      0.75217458    -5.7444331      5.7444331     -5.7444331      5.7444331     -5.7444331      5.7444331    
   1772000   481.55586      25.611976      294.14609     -1172.7948      171.23834      0.75217458    -5.7444331      5.7444331     -5.7444331      5.7444331     -5.7444331      5.7444331    
   1773000   482.04961      25.104109      312.84232      9836.1649      191.98393      0.75217458    -5.7444331      5.7444331     -5.7444331      5.7444331     -5.7444331      5.7444331    
   1774000   482.54741      24.596479      265.59949      2328.1111      166.44661      0.75217458    -5.7444331      5.7444331     -5.7444331      5.7444331     -5.7444331      5.7444331    
   1775000   483.04439      24.088828      304.44318     -537.03436      172.36802      0.75217458    -5.7444331      5.7444331     -5.7444331      5.7444331     -5.7444331      5.7444331    
   1776000   483.54874      23.581559      288.77961      1832.7355      156.98442      0.75217458    -5.7444331      5.7444331     -5.7444331      5.7444331     -5.7444331      5.7444331    
   1777000   484.04948      23.074124      286.01107     -4165.9204      164.30532      0.75217458    -5.7444331      5.7444331     -5.7444331      5.7444331     -5.7444331      5.7444331    
   1778000   484.54701      22.566554      305.54396      1009.3918      180.15509      0.75217458    -5.7444331      5.7444331     -5.7444331      5.7444331     -5.7444331      5.7444331    
   1779000   485.05201      22.059344      302.76855     -394.78942      172.41597      0.75217458    -5.7444331      5.7444331     -5.7444331      5.7444331     -5.7444331      5.7444331    
   1780000   485.55256      21.551941      292.47741     -701.94908      168.16217      0.75217458    -5.7444331      5.7444331     -5.7444331      5.7444331     -5.7444331      5.7444331    
   1781000   486.051        21.044462      280.85736     -2086.7624      165.80942      0.75217458    -5.7444331      5.7444331     -5.7444331      5.7444331     -5.7444331      5.7444331    
   1782000   486.54801      20.536941      262.83427     -136.64081      166.96756      0.75217458    -5.7444331      5.7444331     -5.7444331      5.7444331     -5.7444331      5.7444331    
   1783000   487.06163      20.030124      290.73482      967.63623      178.66967      0.75217458    -5.7444331      5.7444331     -5.7444331      5.7444331     -5.7444331      5.7444331    
   1784000   487.55858      19.522626      286.97957      3160.286       176.81246      0.75217458    -5.7444331      5.7444331     -5.7444331      5.7444331     -5.7444331      5.7444331    
   1785000   488.05768      19.015234      311.34395     -2403.9248      194.09076      0.75217458    -5.7444331      5.7444331     -5.7444331      5.7444331     -5.7444331      5.7444331    
   1786000   488.55695      18.507866      306.53096      166.62571      174.72017      0.75217458    -5.7444331      5.7444331     -5.7444331      5.7444331     -5.7444331      5.7444331    
   1787000   489.05482      18.000463      285.02652     -1307.3218      175.13379      0.75217458    -5.7444331      5.7444331     -5.7444331      5.7444331     -5.7444331      5.7444331    
   1788000   489.55172      17.493044      263.44995      3102.6665      154.58984      0.75217458    -5.7444331      5.7444331     -5.7444331      5.7444331     -5.7444331      5.7444331    
   1789000   490.04479      16.985515      300.64561     -4835.0512      182.35963      0.75217458    -5.7444331      5.7444331     -5.7444331      5.7444331     -5.7444331      5.7444331    
   1790000   490.5395       16.478071      300.34977      10061.698      175.82812      0.75217458    -5.7444331      5.7444331     -5.7444331      5.7444331     -5.7444331      5.7444331    
   1791000   491.04795      15.9711        270.20752     -2289.5927      150.6828       0.75217458    -5.7444331      5.7444331     -5.7444331      5.7444331     -5.7444331      5.7444331    
   1792000   491.54303      15.463705      279.976        2471.4067      179.74589      0.75217458    -5.7444331      5.7444331     -5.7444331      5.7444331     -5.7444331      5.7444331    
   1793000   492.04006      14.956395      313.44864     -2422.8275      181.15062      0.75217458    -5.7444331      5.7444331     -5.7444331      5.7444331     -5.7444331      5.7444331    
   1794000   492.53453      14.449031      281.08271     -2215.9403      158.12628      0.75217458    -5.7444331      5.7444331     -5.7444331      5.7444331     -5.7444331      5.7444331    
   1795000   493.06653      13.942755      253.54233     -810.39986      165.09025      0.75217458    -5.7444331      5.7444331     -5.7444331      5.7444331     -5.7444331      5.7444331    
   1796000   493.56512      13.435517      305.60586     -525.22894      180.64153      0.75217458    -5.7444331      5.7444331     -5.7444331      5.7444331     -5.7444331      5.7444331    
   1797000   494.06641      12.928367      257.45567      1444.6953      160.73219      0.75217458    -5.7444331      5.7444331     -5.7444331      5.7444331     -5.7444331      5.7444331    
   1798000   494.567        12.421211      295.04401     -3267.5905      182.19085      0.75217458    -5.7444331      5.7444331     -5.7444331      5.7444331     -5.7444331      5.7444331    
   1799000   495.04195      11.913452      276.84032      2281.8023      160.65054      0.75217458    -5.7444331      5.7444331     -5.7444331      5.7444331     -5.7444331      5.7444331    
   1800000   495.54342      11.40637       311.31094      7509.4624      185.23433      0.75217458    -5.7444331      5.7444331     -5.7444331      5.7444331     -5.7444331      5.7444331    
   1801000   496.04983      10.899409      314.12882      4974.4307      172.32061      0.75217458    -5.7444331      5.7444331     -5.7444331      5.7444331     -5.7444331      5.7444331    
   1802000   496.55568      10.392436      260.37128     -3857.1975      157.26757      0.75217458    -5.7444331      5.7444331     -5.7444331      5.7444331     -5.7444331      5.7444331    
   1803000   497.04097      9.8850575      281.64238      138.53087      174.63667      0.75217458    -5.7444331      5.7444331     -5.7444331      5.7444331     -5.7444331      5.7444331    
   1804000   497.5223       9.377649       279.67024     -2266.975       165.65409      0.75217458    -5.7444331      5.7444331     -5.7444331      5.7444331     -5.7444331      5.7444331    
   1805000   498.00144      8.8702546      270.90145     -2107.2916      153.08535      0.75217458    -5.7444331      5.7444331     -5.7444331      5.7444331     -5.7444331      5.7444331    
   1806000   498.48441      8.3629819      289.53022     -5158.0821      162.02506      0.75217458    -5.7444331      5.7444331     -5.7444331      5.7444331     -5.7444331      5.7444331    
   1807000   498.9884       7.8560896      281.56542      1371.7326      169.83696      0.75217458    -5.7444331      5.7444331     -5.7444331      5.7444331     -5.7444331      5.7444331    
   1808000   499.49029      7.3491722      269.29343      8463.3526      173.1173       0.75217458    -5.7444331      5.7444331     -5.7444331      5.7444331     -5.7444331      5.7444331    
   1809000   499.99858      6.8423525      320.53166     -2369.5549      195.45793      0.75217458    -5.7444331      5.7444331     -5.7444331      5.7444331     -5.7444331      5.7444331    
   1810000   500.50475      6.3355032      310.83405     -3253.2712      183.34369      0.75217458    -5.7444331      5.7444331     -5.7444331      5.7444331     -5.7444331      5.7444331    
   1811000   501.0099       5.8286432      265.60768     -3521.3287      163.76943      0.75217458    -5.7444331      5.7444331     -5.7444331      5.7444331     -5.7444331      5.7444331    
   1812000   501.51884      5.321827       298.52682      2094.8444      167.60768      0.75217458    -5.7444331      5.7444331     -5.7444331      5.7444331     -5.7444331      5.7444331    
   1813000   502.03188      4.8150458      282.43984     -3510.3791      161.14346      0.75217458    -5.7444331      5.7444331     -5.7444331      5.7444331     -5.7444331      5.7444331    
   1814000   502.53791      4.3081918      270.27007     -4542.3325      167.9038       0.75217458    -5.7444331      5.7444331     -5.7444331      5.7444331     -5.7444331      5.7444331    
   1815000   503.05531      3.8014255      314.37915      7298.8946      181.2018       0.75217458    -5.7444331      5.7444331     -5.7444331      5.7444331     -5.7444331      5.7444331    
   1816000   503.56868      3.2946114      295.48381      1800.0691      166.94698      0.75217458    -5.7444331      5.7444331     -5.7444331      5.7444331     -5.7444331      5.7444331    
   1817000   504.09568      2.7878595      256.84763     -1849.4061      168.87408      0.75217458    -5.7444331      5.7444331     -5.7444331      5.7444331     -5.7444331      5.7444331    
   1818000   504.60001      2.2809644      285.64221      4703.5001      197.39439      0.75217458    -5.7444331      5.7444331     -5.7444331      5.7444331     -5.7444331      5.7444331    
   1819000   505.10832      1.7740884      257.89535      7442.4745      170.16896      0.75217458    -5.7444331      5.7444331     -5.7444331      5.7444331     -5.7444331      5.7444331    
   1820000   505.61225      1.2671986      285.17552     -2622.2558      172.16082      0.75217458    -5.7444331      5.7444331     -5.7444331      5.7444331     -5.7444331      5.7444331    
   1821000   506.11501      0.76031298     314.86338      1218.1301      180.42938      0.75217458    -5.7444331      5.7444331     -5.7444331      5.7444331     -5.7444331      5.7444331    
   1822000   506.62737      0.2534404      309.46604     -3831.3473      167.68159      0.75217458    -5.7444331      5.7444331     -5.7444331      5.7444331     -5.7444331      5.7444331    
   1822500   506.89639      0              264.7739       2599.1631      155.92436      0.75217458    -5.7444331      5.7444331     -5.7444331      5.7444331     -5.7444331      5.7444331    
Loop time of 506.896 on 1 procs for 1000000 steps with 126 atoms

Performance: 170.449 ns/day, 0.141 hours/ns, 1972.789 timesteps/s, 248.571 katom-step/s
99.5% CPU use with 1 MPI tasks x no OpenMP threads

MPI task timing breakdown:
Section |  min time  |  avg time  |  max time  |%varavg| %total
---------------------------------------------------------------
Pair    | 366.1      | 366.1      | 366.1      |   0.0 | 72.22
Bond    | 9.5314     | 9.5314     | 9.5314     |   0.0 |  1.88
Kspace  | 88.626     | 88.626     | 88.626     |   0.0 | 17.48
Neigh   | 30.08      | 30.08      | 30.08      |   0.0 |  5.93
Comm    | 10.455     | 10.455     | 10.455     |   0.0 |  2.06
Output  | 0.17082    | 0.17082    | 0.17082    |   0.0 |  0.03
Modify  | 1.1169     | 1.1169     | 1.1169     |   0.0 |  0.22
Other   |            | 0.8148     |            |       |  0.16

Nlocal:            126 ave         126 max         126 min
Histogram: 1 0 0 0 0 0 0 0 0 0
Nghost:           5094 ave        5094 max        5094 min
Histogram: 1 0 0 0 0 0 0 0 0 0
Neighs:          60029 ave       60029 max       60029 min
Histogram: 1 0 0 0 0 0 0 0 0 0

Total # of neighbors = 60029
Ave neighs/atom = 476.42063
Ave special neighs/atom = 5.3333333
Neighbor list builds = 25969
Dangerous builds = 0
Total wall time: 0:10:05
