LAMMPS data file via write_data, version 29 Aug 2024, timestep = 822500, units = real

126 atoms
18 atom types
107 bonds
17 bond types
151 angles
25 angle types
81 dihedrals
27 dihedral types
44 impropers
8 improper types

-5.744433084432162 5.744433084432162 xlo xhi
-5.744433084432162 5.744433084432162 ylo yhi
-5.744433084432162 5.744433084432162 zlo zhi

Masses

1 12.011
2 12.011
3 12.011
4 12.011
5 12.011
6 12.011
7 1.008
8 1.008
9 1.008
10 1.008
11 1.008
12 1.008
13 12.011
14 15.999
15 1.008
16 1.008
17 1.008
18 1.008

Pair Coeffs # lj/cut/coul/long

1 0.07 3.55
2 0.07 3.55
3 0.07 3.55
4 0.07 3.55
5 0.07 3.55
6 0.07 3.55
7 0.03 2.42
8 0.03 2.42
9 0.03 2.42
10 0.03 2.42
11 0.03 2.42
12 0.03 2.42
13 0.066 3.5
14 0.17 3.12
15 0.03 2.5
16 0.03 2.5
17 0.03 2.5
18 0 0

Bond Coeffs # harmonic

1 469 1.4
2 469 1.4
3 469 1.4
4 469 1.4
5 469 1.4
6 367 1.08
7 367 1.08
8 367 1.08
9 367 1.08
10 367 1.08
11 367 1.08
12 469 1.4
13 320 1.41
14 340 1.09
15 340 1.09
16 340 1.09
17 553 0.945

Angle Coeffs # harmonic

1 63 120
2 63 120
3 63 120
4 63 120
5 35 120
6 35 120
7 35 120
8 35 120
9 35 120
10 35 120
11 35 120
12 35 120
13 35 120
14 35 120
15 63 120
16 35 120
17 63 120
18 35 120
19 35 109.5
20 35 109.5
21 35 109.5
22 55 108.5
23 33 107.8
24 33 107.8
25 33 107.8

Dihedral Coeffs # opls

1 0 7.25 0 0
2 0 7.25 0 0
3 0 7.25 0 0
4 0 7.25 0 0
5 0 7.25 0 0
6 0 7.25 0 0
7 0 7.25 0 0
8 0 7.25 0 0
9 0 7.25 0 0
10 0 7.25 0 0
11 0 7.25 0 0
12 0 7.25 0 0
13 0 7.25 0 0
14 0 7.25 0 0
15 0 7.25 0 0
16 0 7.25 0 0
17 0 7.25 0 0
18 0 7.25 0 0
19 0 7.25 0 0
20 0 7.25 0 0
21 0 7.25 0 0
22 0 7.25 0 0
23 0 7.25 0 0
24 0 7.25 0 0
25 0 0 0.352 0
26 0 0 0.352 0
27 0 0 0.352 0

Improper Coeffs # cvff

1 2.5 -1 2
2 2.5 -1 2
3 2.5 -1 2
4 2.5 -1 2
5 2.5 -1 2
6 2.5 -1 2
7 0 -1 2
8 0 -1 2

Atoms # full

10 1 10 0.1474 -3.107444170263023 -0.07437078182813157 3.5060833033081154 -2 0 1
113 18 17 0.07679999999999999 -2.7348497189200893 -2.9780580684451388 -1.8243184994524093 -1 0 1
11 1 11 0.147 -4.020359086928673 -1.9498496129639868 2.418970506569215 -2 0 1
4 1 4 -0.1472 -2.4527593656093516 -0.8781010531017029 3.294571758303004 -2 0 1
70 11 16 0.07679999999999999 5.261402026566884 -2.6201433913246244 3.0645968925975446 -2 1 1
53 8 17 0.07679999999999999 -0.8811591987383823 1.6706388942201678 -4.352924434530136 -1 -1 0
51 8 15 0.07679999999999999 0.38403111042432075 0.3888627752595935 -4.545731950877715 -1 -1 0
49 8 13 -0.0491 -0.13658461569058652 0.9908049998215703 -3.8388417174934504 -1 -1 0
52 8 16 0.07679999999999999 0.5334596872093814 1.6115804282976507 -3.2024732700358016 -1 0 0
57 9 15 0.07679999999999999 -2.824846559388154 5.7159397852054274 -5.654948267915165 2 -1 2
124 20 16 0.07679999999999999 2.5265717901903506 0.9420535644685888 -5.680920862925133 -2 1 2
121 20 13 -0.0491 2.9071668772420356 0.7868485013730472 4.79601476167177 -2 1 1
3 1 3 -0.1474 -1.097237026972781 -0.8488289760136596 3.6803089977584724 -2 0 0
2 1 2 -0.1476 -0.2765746622120513 -1.9886313053384874 3.5358761667780048 -2 -1 0
9 1 9 0.1474 -0.7321911631265453 0.012436165477427074 4.29470150172349 -2 0 0
6 1 6 -0.147 -2.1700636895366245 -3.1708520059967205 2.5066852900435306 -2 -1 1
5 1 5 -0.147 -2.980892748516648 -2.0309523499229662 2.672654942250381 -2 0 1
24 3 18 0.4061 2.099614429242837 -0.45365587112722827 -1.1364936009190543 -1 -1 0
20 3 14 -0.5873 1.4117867352394335 0.14793817339838 -0.8019015764971347 -1 -1 0
21 3 15 0.07679999999999999 0.6334309339504764 0.562992416720925 1.0558769076943038 0 -1 1
30 4 18 0.4061 -2.0568090739934903 0.951232810850828 -1.771570174251696 1 -1 -2
26 4 14 -0.5873 -2.5682057039173776 1.4566809819748285 -1.1302592341913438 1 -1 -2
42 6 18 0.4061 -5.111653863324143 -4.2474562147468164 -3.847583552560798 0 1 -1
38 6 14 -0.5873 -5.505460895323973 -4.237017883439697 -2.976973080901897 0 1 -1
40 6 16 0.07679999999999999 4.981244645151585 5.384335614576122 -3.2592378954134444 -1 -1 -2
8 1 8 0.1474 0.6955198375454101 -2.0951798731842866 3.911898340240417 -2 -1 0
126 20 18 0.4061 4.821747430178149 0.8642596034455687 5.294697819067515 -2 1 1
122 20 14 -0.5873 4.2808857082990075 0.257252652366747 4.7772511881417925 -2 1 1
39 6 15 0.07679999999999999 4.396760808218474 -5.11795729143899 -1.8818715365777494 -1 0 -2
37 6 13 -0.0491 4.8714820509944 -5.095522693085614 -2.9056955834539218 -1 0 -2
41 6 17 0.07679999999999999 4.109936981324077 -4.7274033370169235 -3.5729327112727427 -1 0 -2
12 1 12 0.147 -2.5732766584401734 -4.030276854192445 1.9998589015706785 -2 -1 1
1 1 1 -0.1474 -0.7592226824625148 -3.1064185747279383 2.8231462958100444 -2 -1 1
46 7 16 0.07679999999999999 5.012892759716421 2.2103040043627242 -0.9761989746935806 1 -1 -2
43 7 13 -0.0491 4.43907914704934 2.8179012116417423 -1.7418442665565264 1 -1 -2
45 7 15 0.07679999999999999 3.8087653867465585 2.147786115873367 -2.3222416154896113 1 -1 -2
47 7 17 0.07679999999999999 5.109019629431642 3.148763453837989 -2.5035636750017423 1 -1 -2
7 1 7 0.1474 -0.06869408907984599 -3.900407679626659 2.7083337039447186 -2 -1 1
92 15 14 -0.5873 -4.132938571305112 5.224348400685855 1.7132187885114536 -3 -5 0
96 15 18 0.4061 -4.05266826134278 -5.741634365000907 0.940910987094396 -3 -3 0
44 7 14 -0.5873 3.7518543330111616 3.9300629715306967 -1.1812937064371378 1 -1 -2
48 7 18 0.4061 2.8873359983863423 3.578520045328895 -1.0217252385434454 1 -1 -2
93 15 15 0.07679999999999999 -5.735086108355532 3.9943005527603566 1.6972496499244538 -3 -5 0
91 15 13 -0.0491 -4.651310392723018 3.9148099727362258 1.6643580947246028 -3 -5 0
95 15 17 0.07679999999999999 -4.473621642430062 3.4523257915615724 0.6999984535324453 -3 -5 0
62 10 14 -0.5873 -5.62360342076709 2.209849749639222 -5.136824641197614 1 -1 0
32 5 14 -0.5873 -0.8083923518339584 3.8580056327653485 4.537879735167207 1 2 -1
36 5 18 0.4061 -0.3271856511190688 4.178486206677452 5.307525236388266 1 2 -1
123 20 15 0.07679999999999999 2.9776408111561423 1.7566677534864026 4.413187995016486 -3 1 1
125 20 17 0.07679999999999999 2.2078573394363703 0.22490372155684957 4.155265819176391 -3 1 1
27 4 15 0.07679999999999999 -1.5876257845514996 0.554986724352175 0.44570120014087766 1 -1 -2
29 4 17 0.07679999999999999 -3.1687653759666268 1.1813056997586284 0.8332431533914567 1 -1 -2
25 4 13 -0.0491 -2.629766716604557 0.7175161939958998 0.0800827493364522 1 -1 -2
35 5 17 0.07679999999999999 -1.0052932797584564 4.7265239158653385 2.6130989543520795 1 2 -1
28 4 16 0.07679999999999999 -2.9815422227695914 -0.28812066600019365 -0.025466252824725158 1 -1 -2
34 5 16 0.07679999999999999 -0.8242353321166218 -5.7075377542423835 4.001167138865943 1 3 -1
31 5 13 -0.0491 -0.4768674885511848 4.822605837343717 3.5481561548467164 1 2 -1
65 10 17 0.07679999999999999 5.258526878826382 2.998722337767887 4.599923970610593 0 -1 -1
61 10 13 -0.0491 -5.548605324769032 3.2335406539354343 5.366820829980682 1 -1 -1
59 9 17 0.07679999999999999 -3.6418824658193616 -5.041007045527417 4.388717580262912 2 0 1
67 11 13 -0.0491 4.379162479450349 -2.822352075379933 2.4505209374183083 -2 1 1
83 13 17 0.07679999999999999 5.632617559808631 -2.366195366387187 -1.4919185514519944 -2 4 1
112 18 16 0.07679999999999999 -2.7642477655490083 -2.5587803921877357 -0.0548902013971631 -1 0 1
109 18 13 -0.0491 -2.5692788006585707 -3.333996898338925 -0.8324039440614063 0 0 1
80 13 14 -0.5873 3.9660215247104094 -1.729509809817339 -0.3862765495484402 -2 3 1
79 13 13 -0.0491 5.198947465029201 -1.4613738248991153 -1.099680298157585 -2 3 1
117 19 15 0.07679999999999999 3.4041352106401113 -0.9489893608035228 -3.324416194179283 -1 1 -1
50 8 14 -0.5873 -0.788829807438582 0.056530487902832965 -3.01912965934646 -1 0 0
119 19 17 0.07679999999999999 2.992256872652284 -2.0531421928361255 -4.687198262083254 -1 1 -1
74 12 14 -0.5873 0.26334737582653506 4.897177586455859 -4.875088342539228 1 -1 1
84 13 18 0.4061 3.958814820275667 -2.462763971970437 0.18902729049094574 -2 3 1
120 19 18 0.4061 2.6496661335789113 -2.7818243251743886 -2.0823708767411553 0 0 -1
116 19 14 -0.5873 2.0696880616048676 -2.486625284034454 -2.7843799290597406 -1 0 -1
115 19 13 -0.0491 2.617636976308334 -1.6274365665801052 -3.731830233652108 -1 0 -1
118 19 16 0.07679999999999999 1.8300840964856249 -1.0279288604474388 -4.147277241896606 -1 1 -1
78 12 18 0.4061 -0.03478332383783528 5.589097921818788 -4.2243293917677445 1 -1 1
110 18 14 -0.5873 -3.400366646899841 -4.431991926725985 -0.47091308915641206 0 0 2
75 12 15 0.07679999999999999 1.2121449101866493 3.961248002741706 -3.3467914421408547 0 -1 1
73 12 13 -0.0491 1.4481164335584424 4.2328715038499185 -4.394878471238862 1 -1 1
114 18 18 0.4061 -3.9245851457264407 -4.66850641228326 -1.2317126073539335 0 0 2
81 13 15 0.07679999999999999 -5.515009224393122 -1.228995746810998 -0.3506280743298824 -1 4 1
69 11 15 0.07679999999999999 3.979252447269878 -1.8443496793499623 2.1548898254981714 -2 1 0
58 9 16 0.07679999999999999 -2.3608724150246605 -4.242026587395565 5.061029587382018 2 0 1
55 9 13 -0.0491 -3.1771325313621417 -4.913998192667149 5.343183023177301 2 0 1
56 9 14 -0.5873 -4.191960440210471 -4.267407632121742 -5.4124860143643145 2 0 2
76 12 16 0.07679999999999999 2.249069040925439 4.990971465369258 -4.317626349308029 1 -1 1
54 8 18 0.4061 -0.08172137023733136 -0.308955378863096 -2.423570046872555 -1 0 0
107 17 17 0.07679999999999999 -1.882241402705551 -4.0809894157932645 -3.9309473698315207 0 3 0
106 17 16 0.07679999999999999 -1.0870018948759121 -2.542757606254706 -3.758325766338705 0 3 0
111 18 15 0.07679999999999999 -1.5073253393953785 -3.679160840491867 -0.7155288651354584 0 0 1
71 11 17 0.07679999999999999 3.7267507304456626 -3.410234601047017 3.1000225573159814 -2 1 1
77 12 17 0.07679999999999999 1.7875280508109501 3.3426437672895513 -4.817870592486152 1 -1 0
19 3 13 -0.0491 1.4794962244298104 -0.03098988558531423 0.6236961902068596 -1 -1 1
60 9 18 0.4061 -4.211294853331868 -3.3487612344383733 -5.667044590210234 2 0 2
94 15 16 0.07679999999999999 -4.26204417079912 3.198718354014195 2.379186809759251 -3 -5 0
23 3 17 0.07679999999999999 1.4172016161145462 -1.1025572861112982 0.9228799117369533 -1 -1 1
33 5 15 0.07679999999999999 0.6154064143145493 4.861916457943913 3.377526323123596 1 2 -1
82 13 16 0.07679999999999999 5.2433754076396495 -0.6515098238449095 -1.8336976053107543 -2 3 1
22 3 16 0.07679999999999999 2.4531052390971717 0.2847662520208603 0.9857787106287459 -1 -1 1
103 17 13 -0.0491 -0.9367957875372281 -3.576326732651945 -4.115561417858409 0 3 0
105 17 15 0.07679999999999999 -0.8077117815731906 -3.476687382267094 -5.2260307772689 0 3 0
88 14 16 0.07679999999999999 0.399005298887032 4.4985902932747255 0.19921771471165486 -2 0 2
85 14 13 -0.0491 0.2545137735412894 3.4324516939577854 -0.0014532480083186091 -2 0 2
90 14 18 0.4061 1.0232337960410913 1.914403585122717 -0.8895677265394827 -2 0 2
108 17 18 0.4061 0.7522464412084919 -3.67567253687522 -3.2375201348303677 0 3 -1
104 17 14 -0.5873 0.03976622356747178 -4.261111880430199 -3.4068362627316824 0 3 -1
101 16 17 0.07679999999999999 -2.6625635088838195 4.717308327757938 -3.0954028605014083 2 -2 0
97 16 13 -0.0491 -3.7679238985802948 4.338885205629448 -3.0992978339977375 2 -2 0
99 16 15 0.07679999999999999 -4.2085495169118445 4.648796025360409 -2.13973382290037 2 -2 0
100 16 16 0.07679999999999999 -4.364104097505522 4.909180215395413 -3.8422106946105767 2 -2 0
98 16 14 -0.5873 -3.90434395311069 2.942689636191391 -3.1615012528709094 2 -2 0
102 16 18 0.4061 -3.7982487647466483 2.583965821010975 -2.2759390393227688 2 -1 0
86 14 14 -0.5873 1.1836252749155387 2.8473572348895764 -0.775863770988584 -2 0 2
72 11 18 0.4061 5.319392889708602 -4.182042033620144 1.4930802798361467 -2 1 1
68 11 14 -0.5873 4.785263860376911 -3.4293398755413635 1.2506048402896575 -2 1 1
17 2 17 0.07679999999999999 -3.051531077658918 -1.6065723840158959 -5.012998002878024 2 2 -2
66 10 18 0.4061 -4.999870373789986 2.39554699917462 -4.466606787285784 1 -1 0
14 2 14 -0.5873 -4.772569710834904 -1.7153986399734693 5.551934467872831 2 2 -3
13 2 13 -0.0491 -4.020861884356186 -1.1072346342012453 -4.988474190083991 2 2 -2
15 2 15 0.07679999999999999 -4.372347353838072 -1.2473097173042593 -3.9760268156913634 2 1 -2
18 2 18 0.4061 -5.316153872257151 -0.990706800292253 5.260081438460379 2 2 -3
16 2 16 0.07679999999999999 -3.7181125849540773 -0.11956644319297809 -5.196983840756778 2 1 -2
87 14 15 0.07679999999999999 -0.657250619943124 3.331855128412793 -0.46429239217934265 -2 0 3
89 14 17 0.07679999999999999 0.29176463346502646 3.0443288550103187 0.9989030875969112 -2 0 2
64 10 16 0.07679999999999999 5.573122005763209 4.167839746893687 -5.641050708108543 0 -1 0
63 10 15 0.07679999999999999 -4.523694298692538 3.3959299487433467 4.902687876488972 1 -1 -1

Velocities

10 -0.0096789939017261 0.0007091021297102453 -0.003740088624182685
113 -0.0008713065718370353 -0.03452294430913055 -0.01117551442413384
11 -0.00041874236000235545 -0.015863229268030583 -0.0021657261050192014
4 0.0035725892771749086 -0.005746931614315685 -0.002295978264706313
70 0.004196368165307082 0.002023197049309458 0.012584520846534442
53 0.018626258195338998 0.0036835073236338237 0.0018442992425973088
51 -0.000587046655312615 -0.007236700622204516 -0.0024279513109137737
49 0.003100053592357938 0.002221933708039117 -0.002574182612772054
52 -0.010690148878370125 0.00903850497877971 -0.007416862533128038
57 -0.004148451154310447 -0.02501844037533742 0.028864733265744062
124 -0.010197530590162237 0.02079168804588538 -0.02867090898126797
121 -0.0068908419072227015 -0.008547895782568551 0.008037380157662668
3 0.002973030690194598 -0.00475531677420957 0.004661024899302372
2 -0.0006253665167030069 -0.0007305462066267764 -0.0015578669945389419
9 0.017928707487220835 -0.015771537974466506 0.007153500178277209
6 0.00199069994902017 0.006889897047819641 0.002537191130979532
5 -0.0035159726131575642 -0.0033981919270532224 -0.002049993169101796
24 0.0004390902458567196 0.00783693232527818 0.003458348164543364
20 0.0001451535075099261 0.00288531762276588 -0.001790679829058842
21 -0.022893493864098908 0.002909952762375001 0.028779205548176427
30 0.007314800439359939 -0.018131502384844855 0.03084099928442055
26 -0.0015255327687986996 -0.007854179221525403 0.0008515549634782337
42 -0.02393986178672393 -0.02148980068433536 -0.003982397116098097
38 -0.002498587552552174 0.0027274669305990176 -0.003671370974362139
40 0.003570585308750226 0.012312699568832257 -0.02701795889318849
8 0.02217552997062536 0.021298632479130865 -0.02259952959655832
126 -0.01882802499715468 0.02913901832119877 0.002713881624531982
122 0.00019952511249771528 0.0034742709941948074 0.00047943770168368277
39 0.025873639222916862 -0.015722046630533854 -0.0032594539949841812
37 -0.007130172558399033 0.0012322521952258538 0.006013808612441207
41 -0.014714975848133563 0.01468775064869252 0.012894145796531342
12 0.0014276349324598345 0.008418912192499904 -0.015608715659207803
1 -0.003564281258549759 0.0013242259224904894 0.0010738045166662545
46 -0.02765241612487214 0.006385929861902026 -0.022173230125890755
43 0.006302711029203457 0.004014882906387602 -0.0032644889759109313
45 0.009022107159988349 -0.014270911752143803 0.023064511784005197
47 0.007104763359017573 0.014174337549282176 0.00896525874297553
7 0.006884025785995352 0.011439599578263106 0.02119043073769373
92 0.0017503181755722894 0.00242342300799745 1.477617692626377e-05
96 -0.012681614901208579 0.011062313355938125 -0.0032253410000116006
44 9.372307885567341e-05 0.0002511454525548086 -0.0015387468371489904
48 0.018466840236125555 0.006151645022874743 -0.012619379036126002
93 -0.009354850965695577 -0.02884817308870347 0.007055693176182414
91 -0.00867216092837289 -0.001601599949389932 0.004427901717783689
95 -0.007363235513933187 -0.012588496677959447 0.010880184004852474
62 0.00022191711500801203 -0.003738148280660679 -0.0028169200110524308
32 0.006442713623101952 -0.0027214227351870534 -0.0057026390870880085
36 -0.0003963599277553448 -0.0017349604786609872 -0.0003143721422118586
123 0.0069564162582006735 0.039967920439870484 0.020164537441807826
125 0.01815645177126947 0.016076434156633745 0.028037540489435187
27 -0.01030022546069136 -0.033618904023974196 0.0009089415689011334
29 -0.01870407215805087 -0.0016836602462590097 0.02238048325383496
25 -0.0025720645093785114 0.005139832598867156 0.005781703868044198
35 0.0006488609690343492 0.017622206471422867 0.007538906892429652
28 -0.01534917483593092 -0.023329152379728796 -0.005339669465849357
34 0.02459561061469312 -0.000791596259230902 0.015774368433191813
31 -0.00753406027782426 -0.005651763676984642 0.00824219982129521
65 0.005166878667600372 0.02177197822905536 -0.013236183328964393
61 0.0015657245997755028 -0.002963078023079802 0.005034188685453365
59 -0.0008926204994115969 -0.0042754169137659975 0.0019355640248136376
67 -0.0030115275700196985 -0.005439097342110818 -3.3045021033714985e-05
83 -0.020356634701029004 0.000760233690736389 -0.004231548413462902
112 0.01082523300465634 0.025165393797801004 -0.028063012427120598
109 -0.005882348444976584 -0.002146134349898233 -0.005705286428898365
80 0.00608765021659695 0.0034997774932487564 -0.005474972087936818
79 0.0038081003099704963 -0.0008085047096140338 -0.004052878937101641
117 -0.007811132336887699 -0.005184608349210627 -0.0036376484402618463
50 -0.0003544027142949593 0.0065039311919243056 -0.0013430699917264613
119 0.004652625571614731 0.008385118564429923 0.005641300589253816
74 0.0015185521480523664 0.004151575203419448 -0.0018253410111398899
84 0.006616953298189073 0.0030037504541304415 0.01492059192764362
120 0.013309870997657288 0.01193149972040284 -0.001824092300382382
116 0.00044916059061638614 0.00021908005368356977 0.005913964916792038
115 0.0007788117418793291 0.0034140427360713423 0.0017081665864474961
118 0.003447342298932608 -0.00340125349488049 -0.0084771577108829
78 -0.030969086079397593 -0.019847147201495427 -0.014668782946554264
110 0.00479629124404866 0.007606794149434875 0.0021423369798362676
75 0.004175228460505541 0.013054112290725596 0.0069279179459353106
73 0.005784951674588982 0.005937714379154175 0.0020364414175072223
114 0.0045234318054621775 -0.015656379272211675 0.017910780627061928
81 0.0040575940461003 -0.0016876644760011438 0.006538636236409547
69 -0.017960082972650167 0.03648843878222485 -0.01215379267720431
58 0.00789162680038348 0.02304576049338192 0.006245728434281014
55 0.008547668505262994 -0.0055408538311275835 0.0007544301239360391
56 0.005560133048857759 0.0023974508323055437 -0.0066642830062831875
76 -0.006271685022270202 -0.0024597291181428535 -0.006475691288795476
54 0.022515303285479824 -0.0012848465760624227 -0.013402694828251595
107 0.017148575787343585 -0.0065236183563240745 -0.003333658583602794
106 -0.01296063355028482 0.015246457923263552 0.0029376352618141087
111 0.01166690813630836 -0.0057177281800039744 0.010506400737510885
71 -0.0029608722271570035 -0.019375106936218033 -0.027320966820089592
77 0.003891689163551712 0.019403084372395022 0.01807838371600415
19 -0.004813274012231929 0.0012936120651402083 0.0006603795575269301
60 0.003339121446690993 -0.01667121901203871 -0.022881453693238768
94 -0.0009609231410607986 -0.006751013940264153 0.007632131280571389
23 -0.007944328244001538 -0.004808583354911013 0.014512482015501243
33 0.0012136939746663147 -0.01885062361879813 0.015264167664550049
82 -0.005100123528070476 0.0005284724773552767 0.00232485253486243
22 0.0006586110121340013 -0.006195498662800954 0.0008504404644798857
103 -0.006204833876573993 0.0062197666609004705 0.004513168468655525
105 0.023520680333186054 -0.001483209882426139 0.017801895663474322
88 0.005670317865054777 0.025054298570668886 0.0019799037464745092
85 -0.004481307513281688 0.002523758119419112 -0.0028067950794671273
90 0.001730794781886729 -0.02133733598627124 -0.010121284584054492
108 -0.008705392680212243 0.007642295575605467 0.010830591880930452
104 -0.004391819838215119 -0.005963435038292409 -0.0013574762407417042
101 -0.00176209205464257 -0.005693812899587715 -0.013333997068490512
97 -0.0012254244936108208 -0.005504000196353607 -0.0036654059657782374
99 -0.022357981407197376 0.003329222172750372 -0.019689121338163456
100 0.01433866116672369 -0.0018299758664786522 0.004123024607717795
98 0.0031343920320728133 0.005367574089140408 0.002722827398157518
102 0.018034823330032285 -0.03499996794515743 -0.0025347908139021673
86 0.002838606243373237 -0.0027318048258569458 -0.0031867342834035937
72 0.02789598324799395 -0.005586246531063214 -0.02407205154462459
68 -0.005031135564116305 -0.005833536278780301 -0.001016019788050869
17 -0.011465795196638012 0.015412568564558578 0.004231488657361671
66 -0.0141132631848534 -0.0033424791485409575 0.011232424738850997
14 0.008386137900307377 -0.0007482834504367952 -0.00038277261603050187
13 -0.004377244986271583 -0.00703774372379671 0.0009963459325392564
15 -0.026536493084211257 0.003411736578951102 0.04289966921881849
18 -0.03540745093929468 -0.01400979853177262 -0.031138307912006807
16 0.005694536242236398 0.015591553230466468 -0.009599344124181215
87 -0.012823319429562118 -0.006086377461182076 0.009758405480241901
89 -0.003693624815400255 0.01667489343466175 0.0032948804705207647
64 -0.0041166981130675 0.01086976006036147 -0.023671053848248535
63 -0.0008238751366784826 0.01629298433320498 -0.0159517680049904

Bonds

1 9 10 4
2 16 113 109
3 10 11 5
4 3 4 3
5 15 70 67
6 16 53 49
7 14 51 49
8 15 52 49
9 14 57 55
10 15 124 121
11 2 3 2
12 1 2 1
13 8 9 3
14 5 6 1
15 12 6 5
16 4 5 4
17 17 24 20
18 13 20 19
19 14 21 19
20 17 30 26
21 13 26 25
22 17 42 38
23 13 38 37
24 15 40 37
25 7 8 2
26 17 126 122
27 13 122 121
28 14 39 37
29 16 41 37
30 11 12 6
31 15 46 43
32 14 45 43
33 16 47 43
34 6 7 1
35 13 92 91
36 17 96 92
37 13 44 43
38 17 48 44
39 14 93 91
40 16 95 91
41 13 62 61
42 13 32 31
43 17 36 32
44 14 123 121
45 16 125 121
46 14 27 25
47 16 29 25
48 16 35 31
49 15 28 25
50 15 34 31
51 16 65 61
52 16 59 55
53 16 83 79
54 15 112 109
55 13 80 79
56 14 117 115
57 13 50 49
58 16 119 115
59 13 74 73
60 17 84 80
61 17 120 116
62 13 116 115
63 15 118 115
64 17 78 74
65 13 110 109
66 14 75 73
67 17 114 110
68 14 81 79
69 14 69 67
70 15 58 55
71 13 56 55
72 15 76 73
73 17 54 50
74 16 107 103
75 15 106 103
76 14 111 109
77 16 71 67
78 16 77 73
79 17 60 56
80 15 94 91
81 16 23 19
82 14 33 31
83 15 82 79
84 15 22 19
85 14 105 103
86 15 88 85
87 17 90 86
88 17 108 104
89 13 104 103
90 16 101 97
91 14 99 97
92 15 100 97
93 13 98 97
94 17 102 98
95 13 86 85
96 17 72 68
97 13 68 67
98 16 17 13
99 17 66 62
100 13 14 13
101 14 15 13
102 17 18 14
103 15 16 13
104 14 87 85
105 16 89 85
106 15 64 61
107 14 63 61

Angles

1 3 3 4 5
2 8 3 4 10
3 14 5 4 10
4 19 50 49 51
5 20 50 49 52
6 21 50 49 53
7 23 51 49 52
8 24 51 49 53
9 25 52 49 53
10 19 122 121 123
11 20 122 121 124
12 21 122 121 125
13 23 123 121 124
14 24 123 121 125
15 25 124 121 125
16 2 2 3 4
17 7 2 3 9
18 16 4 3 9
19 1 1 2 3
20 6 1 2 8
21 18 3 2 8
22 10 1 6 12
23 13 5 6 12
24 15 1 6 5
25 9 4 5 11
26 11 6 5 11
27 17 4 5 6
28 22 19 20 24
29 22 25 26 30
30 22 37 38 42
31 22 121 122 126
32 19 38 37 39
33 20 38 37 40
34 21 38 37 41
35 23 39 37 40
36 24 39 37 41
37 25 40 37 41
38 4 2 1 6
39 5 2 1 7
40 12 6 1 7
41 19 44 43 45
42 20 44 43 46
43 21 44 43 47
44 23 45 43 46
45 24 45 43 47
46 25 46 43 47
47 22 91 92 96
48 22 43 44 48
49 19 92 91 93
50 20 92 91 94
51 21 92 91 95
52 23 93 91 94
53 24 93 91 95
54 25 94 91 95
55 22 61 62 66
56 22 31 32 36
57 19 26 25 27
58 20 26 25 28
59 21 26 25 29
60 23 27 25 28
61 24 27 25 29
62 25 28 25 29
63 19 32 31 33
64 20 32 31 34
65 21 32 31 35
66 23 33 31 34
67 24 33 31 35
68 25 34 31 35
69 19 62 61 63
70 20 62 61 64
71 21 62 61 65
72 23 63 61 64
73 24 63 61 65
74 25 64 61 65
75 19 68 67 69
76 20 68 67 70
77 21 68 67 71
78 23 69 67 70
79 24 69 67 71
80 25 70 67 71
81 19 110 109 111
82 20 110 109 112
83 21 110 109 113
84 23 111 109 112
85 24 111 109 113
86 25 112 109 113
87 22 79 80 84
88 19 80 79 81
89 20 80 79 82
90 21 80 79 83
91 23 81 79 82
92 24 81 79 83
93 25 82 79 83
94 22 49 50 54
95 22 73 74 78
96 22 115 116 120
97 19 116 115 117
98 20 116 115 118
99 21 116 115 119
100 23 117 115 118
101 24 117 115 119
102 25 118 115 119
103 22 109 110 114
104 19 74 73 75
105 20 74 73 76
106 21 74 73 77
107 23 75 73 76
108 24 75 73 77
109 25 76 73 77
110 19 56 55 57
111 20 56 55 58
112 21 56 55 59
113 23 57 55 58
114 24 57 55 59
115 25 58 55 59
116 22 55 56 60
117 19 20 19 21
118 20 20 19 22
119 21 20 19 23
120 23 21 19 22
121 24 21 19 23
122 25 22 19 23
123 19 104 103 105
124 20 104 103 106
125 21 104 103 107
126 23 105 103 106
127 24 105 103 107
128 25 106 103 107
129 19 86 85 87
130 20 86 85 88
131 21 86 85 89
132 23 87 85 88
133 24 87 85 89
134 25 88 85 89
135 22 103 104 108
136 19 98 97 99
137 20 98 97 100
138 21 98 97 101
139 23 99 97 100
140 24 99 97 101
141 25 100 97 101
142 22 97 98 102
143 22 85 86 90
144 22 67 68 72
145 22 13 14 18
146 19 14 13 15
147 20 14 13 16
148 21 14 13 17
149 23 15 13 16
150 24 15 13 17
151 25 16 13 17

Dihedrals

1 2 5 4 3 2
2 4 10 4 3 9
3 6 10 4 3 2
4 14 10 4 5 6
5 1 4 3 2 1
6 11 9 3 2 1
7 18 9 3 2 8
8 24 9 3 4 5
9 5 8 2 3 4
10 9 8 2 1 6
11 19 8 2 1 7
12 8 5 6 1 2
13 12 12 6 5 4
14 16 12 6 1 7
15 17 12 6 5 11
16 21 12 6 1 2
17 7 6 5 4 3
18 13 11 5 4 3
19 15 11 5 6 1
20 22 4 5 6 1
21 23 11 5 4 10
22 25 24 20 19 21
23 26 24 20 19 23
24 27 24 20 19 22
25 25 30 26 25 27
26 26 30 26 25 29
27 27 30 26 25 28
28 25 42 38 37 39
29 26 42 38 37 41
30 27 42 38 37 40
31 25 126 122 121 123
32 26 126 122 121 125
33 27 126 122 121 124
34 3 6 1 2 3
35 10 7 1 2 3
36 20 7 1 6 5
37 25 96 92 91 93
38 26 96 92 91 95
39 27 96 92 91 94
40 25 48 44 43 45
41 26 48 44 43 47
42 27 48 44 43 46
43 25 66 62 61 63
44 26 66 62 61 65
45 27 66 62 61 64
46 25 36 32 31 33
47 26 36 32 31 35
48 27 36 32 31 34
49 25 84 80 79 81
50 26 84 80 79 83
51 27 84 80 79 82
52 25 54 50 49 51
53 26 54 50 49 53
54 27 54 50 49 52
55 25 78 74 73 75
56 26 78 74 73 77
57 27 78 74 73 76
58 25 120 116 115 117
59 26 120 116 115 119
60 27 120 116 115 118
61 25 114 110 109 111
62 26 114 110 109 113
63 27 114 110 109 112
64 25 60 56 55 57
65 26 60 56 55 59
66 27 60 56 55 58
67 25 108 104 103 105
68 26 108 104 103 107
69 27 108 104 103 106
70 25 102 98 97 99
71 26 102 98 97 101
72 27 102 98 97 100
73 25 90 86 85 87
74 26 90 86 85 89
75 27 90 86 85 88
76 25 72 68 67 69
77 26 72 68 67 71
78 27 72 68 67 70
79 25 18 14 13 15
80 26 18 14 13 17
81 27 18 14 13 16

Impropers

1 4 4 10 3 5
2 5 5 11 4 6
3 1 1 2 6 7
4 3 3 9 2 4
5 7 19 20 21 22
6 8 19 20 21 23
7 7 25 26 27 28
8 8 25 26 27 29
9 7 37 38 39 40
10 8 37 38 39 41
11 7 121 122 123 124
12 8 121 122 123 125
13 2 2 1 3 8
14 6 6 1 12 5
15 7 91 92 93 94
16 8 91 92 93 95
17 7 43 44 45 46
18 8 43 44 45 47
19 7 61 62 63 64
20 8 61 62 63 65
21 7 31 32 33 34
22 8 31 32 33 35
23 7 79 80 81 82
24 8 79 80 81 83
25 7 49 50 51 52
26 8 49 50 51 53
27 7 73 74 75 76
28 8 73 74 75 77
29 7 115 116 117 118
30 8 115 116 117 119
31 7 109 110 111 112
32 8 109 110 111 113
33 7 55 56 57 58
34 8 55 56 57 59
35 7 103 104 105 106
36 8 103 104 105 107
37 7 97 98 99 100
38 8 97 98 99 101
39 7 85 86 87 88
40 8 85 86 87 89
41 7 67 68 69 70
42 8 67 68 69 71
43 7 13 14 15 16
44 8 13 14 15 17
