LAMMPS data file Created by LigParGen - (Written by Leela S. Dodda)

       6 atoms
       5 bonds
       7 angles
       3 dihedrals
       2 impropers
 
       6 atom types
       5 bond types
       7 angle types
       3 dihedral types
       2 improper types
 
   -0.700910    49.299090 xlo xhi
    0.114530    50.114530 ylo yhi
   -1.030260    48.969740 zlo zhi

Masses

       1     12.011  
       2     15.999  
       3      1.008  
       4      1.008  
       5      1.008  
       6      1.008  

Pair Coeffs 

       1      0.066  3.5000000 
       2      0.170  3.1200000 
       3      0.030  2.5000000 
       4      0.030  2.5000000 
       5      0.030  2.5000000 
       6      0.000  0.0000000 

Bond Coeffs 

       1   320.0000     1.4100 
       2   340.0000     1.0900 
       3   340.0000     1.0900 
       4   340.0000     1.0900 
       5   553.0000     0.9450 

Angle Coeffs 

       1     35.000    109.500
       2     35.000    109.500
       3     35.000    109.500
       4     55.000    108.500
       5     33.000    107.800
       6     33.000    107.800
       7     33.000    107.800

Dihedral Coeffs  

       1      0.000      0.000      0.352      0.000 
       2      0.000      0.000      0.352      0.000 
       3      0.000      0.000      0.352      0.000 

Improper Coeffs 

       1      0.000      -1       2 
       2      0.000      -1       2 

Atoms 

     1      1      1 -0.04910000    1.000  1.00000  0.00000
     2      1      2 -0.58730000   -0.416  1.00000  0.00000
     3      1      3 0.07680000    1.364  1.00000 -1.03026
     4      1      4 0.07680000    1.364  0.11453  0.52677
     5      1      5 0.07680000    1.354  1.89901  0.50979
     6      1      6 0.40610000   -0.701  0.19196 -0.45955

Bonds 

     1      1      2      1
     2      2      3      1
     3      3      4      1
     4      4      5      1
     5      5      6      2

Angles 

     1      1      2      1      3
     2      2      2      1      4
     3      3      2      1      5
     4      4      1      2      6
     5      5      3      1      4
     6      6      3      1      5
     7      7      4      1      5

Dihedrals

     1      1      6      2      1      3 
     2      2      6      2      1      5 
     3      3      6      2      1      4 

Impropers

     1      1      1      2      3      4 
     2      2      1      2      3      5 

